default_name
 25747
  37.3331836  14.5863042  45.8460033  36.6673562  13.9858130  46.3109605
  38.2458006  14.4339518  46.2509962  37.2034017  14.5032967  44.8478219
  36.9865477  16.0081075  46.1737775  37.7971312  16.5337435  46.6785153
  36.6848991  16.7311655  44.8344730  35.8690617  16.2217264  44.3216562
  36.3989420  17.7637329  45.0348058  37.5744867  16.7166994  44.2047715
  35.8107106  16.0135964  47.1543135  35.1909435  14.9547144  47.2706050
  35.4765142  17.0628766  47.9073181  36.3112013  18.2526186  48.0367683
  36.3137085  18.7744711  47.0798128  37.3251697  17.9345177  48.2792118
  35.6779535  19.0783923  49.1529354  35.8161362  20.1436211  48.9677541
  36.1145236  18.8181331  50.1171829  34.1957452  18.6884545  49.1000000
  33.6251942  19.3603281  48.4587852  33.7712455  18.6974559  50.1039017
  34.1578119  17.2529545  48.5236723  34.0817940  16.5441688  49.3482585
  32.9870043  17.0433287  47.5627598  33.1663357  17.2003932  46.3559347
  31.7808442  16.6914795  48.0458726  31.7090223  16.4071365  49.0123559
  30.5893760  16.6300927  47.2205489  30.8233511  16.0194604  46.3484922
  29.4654784  15.9404039  48.0172909  29.2137805  16.5446415  48.8888672
  28.5846762  15.8318653  47.3844346  29.8016989  14.9560625  48.3430621
  30.1219114  17.9935964  46.7125010  29.5417684  18.1034746  45.6300710
  30.3438138  19.0695898  47.4861595  30.7986859  18.9601831  48.3812689
  29.9080065  20.3852574  47.0985878  29.9586741  20.4829235  46.0141556
  28.4455765  20.6009314  47.5457256  28.3803259  20.5152028  48.6303882
  28.1140662  21.5931462  47.2396031  27.8087168  19.8468798  47.0832160
  30.8032578  21.4544772  47.6941415  31.3579188  21.2855560  48.7841607
  30.9706598  22.5852530  46.9791823  30.5086921  22.6382149  46.0825885
  31.7637853  23.7228745  47.4138834  31.8339056  23.7475966  48.5013443
  33.1884577  23.7129734  46.8289564  33.1079966  23.6608400  45.7431814
  33.9923561  24.9696551  47.2252046  34.0736415  25.0222291  48.3108978
  34.9897729  24.9160979  46.7888655  33.4821483  25.8593335  46.8560678
  33.9653239  22.4561827  47.2783448  33.4421136  21.5633011  46.9361234
  34.9676755  22.4757053  46.8505483  34.0352742  22.4412320  48.3659956
  31.0429936  24.9745004  46.9416919  30.6913329  25.0695334  45.7656645
  30.8123490  25.9738394  47.8196160  30.8827152  25.7638298  48.8050316
  30.3567778  27.2916558  47.4294419  30.5250763  27.4370144  46.3623685
  28.8403226  27.4581848  47.7198632  28.3233561  26.5787471  47.3358915
  28.7296317  27.4998398  48.8034279  28.2429094  28.7011580  47.1051065
  26.9874475  28.7417224  47.0520495  28.9632088  29.6435180  46.6874566
  31.2674166  28.2864638  48.1456443  31.2814994  28.3772663  49.3874392
  32.1042977  29.0325948  47.4026318  32.1468795  28.8464847  46.4108409
  33.0147097  30.0171633  47.9576353  33.3830248  29.6664325  48.9217053
  34.2250910  30.2550105  47.0224996  33.9148027  30.4503285  45.9960147
  34.7889138  31.1082062  47.3996747  35.1882651  29.0889447  46.9692158
  35.4353638  28.2041602  45.9583273  34.8380613  28.3353438  45.0560411
  36.4238778  27.3037164  46.3127099  36.8121817  26.5657683  45.7428395
  36.8276321  27.6245569  47.5909700  37.8194764  27.0428442  48.3780387
  38.3669080  26.1879758  47.9810285  38.0500746  27.6035771  49.6450447
  38.8219022  27.1870491  50.2922592  37.3038385  28.6938278  50.0966198
  37.4767581  29.1160416  51.0865359  36.3110109  29.2793177  49.2943931
  35.7568201  30.1437132  49.6601715  36.0986064  28.7172639  48.0326067
  32.3479964  31.3433591  48.2886822  32.9161383  32.1543680  49.0226000
  31.1084650  31.5888933  47.8089572  30.7040116  30.9034606  47.1871061
  30.3426678  32.7923633  48.1017975  30.9305299  33.6682548  47.8273317
  29.0133598  32.8246197  47.3169976  28.4330549  31.9633855  47.6480881
  28.5001458  33.7413022  47.6075223  29.1630133  32.7840100  45.7846358
  29.7048811  33.6804721  45.4832461  29.7531889  31.9022384  45.5350890
  27.8235998  32.7261325  45.0474989  27.1601577  33.5276370  45.3723590
  27.9648200  32.7869928  43.9684009  27.1879818  31.4195758  45.3724623
  27.7022224  30.7773760  45.9583252  25.9772048  31.0526197  44.9306169
  25.2773375  31.8163107  44.1006844  25.6580165  32.6981388  43.7883343
  24.3673367  31.5120762  43.7853441  25.4665091  29.8992463  45.3332802
  25.9910490  29.3113741  45.9652330  24.5547757  29.6126622  45.0066145
  30.0252512  32.9343455  49.5793948  30.0293270  34.0305221  50.1349793
  29.7831168  31.8042575  50.2676411  29.8577780  30.9193079  49.7866116
  29.4055189  31.7961855  51.6587747  28.8511919  32.7005275  51.9097456
  28.4932231  30.5765072  51.8987817  29.0373856  29.6626132  51.6604859
  28.1846626  30.5529901  52.9439313  27.6117907  30.6504845  51.2618331
  30.6134862  31.7159728  52.5846336  30.4764144  31.6131380  53.8015713
  31.8456704  31.7708788  52.0375793  31.9232559  31.8656827  51.0350365
  33.0620966  31.5840813  52.8073545  32.8281455  31.4976405  53.8684361
  33.7693658  30.2871367  52.3500120  33.8943795  30.3237226  51.2678234
  34.7483411  30.2396283  52.8269297  32.9496101  29.0339233  52.7314183
  33.0652068  28.9152912  53.8087598  31.9110767  29.2725461  52.5020504
  33.3402434  27.7304130  52.0300173  32.6580682  26.9249830  52.3020809
  33.3380039  27.8576416  50.9474706  34.7266107  27.3549359  52.4673740
  35.1831195  27.9383261  53.1539269  35.3846260  26.2842242  51.9979571
  34.8272113  25.4837338  51.0963513  33.8962880  25.6805787  50.7576273
  35.3368575  24.6819036  50.7536725  36.6151696  25.9933969  52.4143989
  37.0674418  26.5856365  53.0961629  37.0908409  25.1818486  52.0466694
  33.9701270  32.7965507  52.7355730  35.1769313  32.7074170  52.9601160
  33.3984384  33.9778044  52.4297337  32.4374021  33.9869513  52.1192098
  34.1080101  35.2533034  52.5269210  33.3436359  36.0259040  52.6101055
  34.6868042  35.2147108  53.4497468  35.0259387  35.5945552  51.3882076
  35.7323885  36.5952398  51.4439660  35.0527523  34.7800724  50.3211219
  34.3528928  34.0576841  50.2291914  36.0767859  34.8746730  49.3065008
  36.9285486  35.4061965  49.7308619  36.5170662  33.4388109  48.9552942
  35.6771619  32.8967058  48.5208027  37.3362092  33.4748166  48.2370961
  36.8494180  32.9287333  49.8594305  35.6626867  35.5883254  48.0337651
  36.4980091  35.8079022  47.1583204  34.3906236  35.9928456  47.8777980
  33.7419805  35.8987615  48.6462443  33.8906323  36.5074319  46.6122883
  34.7224280  36.6038256  45.9144895  32.8310526  35.5936408  45.9878184
  31.9405108  35.6034897  46.6162589  32.4650785  36.0777666  44.5712440
  33.3550870  36.0677508  43.9420497  31.7113158  35.4163394  44.1440948
  32.0696164  37.0921152  44.6242381  33.3640473  34.1491002  45.8963458
  33.6049172  33.7861907  46.8955357  32.6031724  33.5080387  45.4511387
  34.2612424  34.1308072  45.2776317  33.3238582  37.9042228  46.8048199
  32.4763716  38.1364190  47.6641961  33.7894591  38.8868947  45.9954116
  34.5952601  38.6819140  45.4220296  33.2655974  40.2575888  45.9945951
  33.0854691  40.5112878  47.0392432  34.1835473  41.3153358  45.3869791
  33.7887184  42.3062872  45.6110901  35.5787435  41.1838496  45.9683481
  35.9744408  40.1932477  45.7442249  36.2283411  41.9416541  45.5303361
  35.5372327  41.3220464  47.0487550  34.2807117  41.1263659  43.9778009
  34.8593181  41.7952365  43.6044015  31.9029914  40.3690628  45.3344138
  31.4531502  39.4529737  44.6420420  31.2015456  41.5116915  45.4887072
  31.5356313  42.1881353  46.1602055  29.9336338  41.7683933  44.8237397
  29.2542607  41.0162910  45.2248551  29.4001957  43.1653504  45.2005202
  30.0651354  43.9294870  44.7979650  28.4014255  43.2977991  44.7845687
  29.3564365  43.2575925  46.2857279  29.9550097  41.6065836  43.2970734
  30.9899311  41.7748052  42.6340408  28.7948005  41.2197291  42.7214449
  28.0919157  40.8740202  43.3590480  28.5192060  41.1610679  41.2908099
  29.2752244  40.5809035  40.7617119  27.1508520  40.5386826  41.0232040
  26.4268617  41.0418740  41.6640907  26.7082501  40.6646945  39.5497392
  27.4315601  40.1613079  38.9082366  25.7286337  40.2037295  39.4233920
  26.6515847  41.7181538  39.2756699  27.1962944  39.0522051  41.4365484
  27.4369506  38.9766106  42.4969597  26.2251772  38.5931790  41.2512754
  27.9588947  38.5356312  40.8537165  28.6538198  42.5335548  40.6463250
  28.3056088  43.5557484  41.2378616  29.2096671  42.5887693  39.4228778
  29.4387053  41.7170520  38.9670821  29.5234011  43.8234922  38.7383806
  29.2699405  44.6703645  39.3760829  31.0337640  43.8957590  38.3959068
  31.2133486  43.1315853  37.6396746  31.2028835  44.8816180  37.9628010
  31.9992925  43.6825057  39.5821474  31.8745682  42.6545479  39.9225112
  33.0129002  43.8194910  39.2054027  31.7545493  44.6465143  40.7596763
  31.5756848  45.6255030  40.3150556  30.8449379  44.2987581  41.2493416
  32.8869298  44.7536959  41.7975663  33.7150707  45.3131556  41.3624939
  32.5144435  45.2811155  42.6757358  33.3552137  43.4087137  42.1928787
  33.7008075  42.9199868  41.3793613  34.0967230  43.4968245  42.8729525
  32.5880928  42.8902917  42.5964420  28.7178276  43.9580801  37.4586297
  27.9774358  43.0571452  37.0590371  28.8507320  45.1208243  36.8034194
  29.3635287  45.8466167  37.2833821  28.2994762  45.4172523  35.5161633
  27.8222057  44.5369938  35.0855160  27.2327155  46.5229592  35.6887812
  26.5345320  46.1905132  36.4569731  27.7381984  47.4281915  36.0251463
  26.4733930  46.8143537  34.4074352  25.5725819  47.6855732  34.4660601
  26.7804300  46.1725063  33.3698085  29.4699813  45.8433509  34.6454351
  30.1931689  46.8013969  34.9746122  29.7209217  45.1384596  33.5318107
  29.2557715  44.2496884  33.4142512  30.7079072  45.5304239  32.5510764
  31.5653119  45.9670236  33.0632648  31.1975247  44.3216054  31.7044942
  32.0338124  44.6878951  31.1090498  31.5570509  43.5789541  32.4167512
  30.1467937  43.6756605  30.7736534  29.2894835  43.3443641  31.3596250
  29.8213143  44.4121181  30.0389457  30.7274311  42.4709616  30.0334874
  30.7142617  41.3354038  30.5180915  31.2546251  42.6970857  28.8091000
  31.6496611  41.9305325  28.2833203  31.2510101  43.6315271  28.4258148
  30.2205587  46.6619675  31.6490041  31.0295884  47.3410242  31.0064025
  28.9003184  46.9383343  31.6055388  28.2999980  46.4507451  32.2551320
  28.2924329  47.8913979  30.6841605  27.2287113  47.9196200  30.9203788
  28.7379054  48.8625149  30.8999974  28.4614854  47.5890543  29.2148863
  28.3844263  46.4476534  28.7677555  28.7044832  48.6252073  28.3914199
  28.8992083  49.5353355  28.7836549  28.7049903  48.4840850  26.9473281
  27.9936475  47.7213962  26.6304744  28.2849949  49.8403089  26.3283042
  29.0160032  50.5771122  26.6612412  28.3521895  49.7257748  25.2464230
  26.8594434  50.3179397  26.7097486  26.7733175  50.3459217  27.7959807
  26.7361595  51.3244596  26.3099728  25.7467921  49.4332919  26.1550286
  24.7684546  49.1101649  26.8348997  25.8677808  49.0341453  24.8736162
  25.1565458  48.4473736  24.4613721  26.6691459  49.3235711  24.3312620
  30.0786866  48.1099927  26.3973315  30.2879850  48.0249685  25.1841794
  31.0627677  47.8592351  27.2714660  30.8301017  47.9478667  28.2502971
  32.4253463  47.5079712  26.9173501  32.6978422  47.9300301  25.9500282
  33.3723686  48.0938719  27.9986840  33.2226167  49.1712851  28.0683574
  33.1529940  47.6340149  28.9622743  35.1724934  47.8958008  27.8242353
  32.6080136  45.9983553  26.8131899  32.0819215  45.2245144  27.6146351
  33.4161096  45.5179968  25.8382547  33.7800989  46.1692371  25.1574484
  33.7889101  44.1106896  25.7187550  32.9225667  43.4969412  25.9654556
  34.0911981  43.9148196  24.6899906  34.9255153  43.7488097  26.6415950
  35.9914408  43.3156781  26.2110490  34.7161425  43.9241934  27.9541260
  33.7743247  44.1683695  28.2251546  35.7301390  43.8319478  28.9920898
  36.7144690  43.7385357  28.5333222  35.7205664  45.0906745  29.8885118
  36.3368094  44.9044030  30.7680837  36.1333085  45.9289660  29.3272532
  34.3888623  45.4022500  30.2981578  34.3998282  46.1852948  30.8534239
  35.5889814  42.6222755  29.8940907  36.2368919  42.5400495  30.9385087
  34.7908961  41.6101690  29.4996311  34.3112902  41.7549135  28.6226325
  34.4941521  40.3960567  30.2604012  33.9784429  40.6599064  31.1837249
  33.5861115  39.4365035  29.4409934  33.4074076  38.5270902  30.0146933
  32.6350944  39.9263665  29.2319464  34.2410819  38.8965224  27.8294550
  33.1984406  38.1382385  27.5026479  35.7317049  39.6471311  30.7510443
  35.7919126  39.1458923  31.8745743  36.7845789  39.6438515  29.9161249
  36.5928469  40.0009855  28.9910339  38.1100824  39.1299201  30.1926338
  38.0692425  38.0646965  30.4200762  39.0030999  39.3362352  28.9303423
  40.0015484  38.9428626  29.1212815  38.5527858  38.7947679  28.0983986
  39.1835694  40.7784854  28.4659223  38.3692775  41.5415810  27.6794829
  37.4741385  41.0443006  27.3059347  38.8733360  42.8208744  27.5226409
  38.4697514  43.5777996  26.9894588  40.0648503  42.8765049  28.2191357
  40.9697739  43.9353256  28.3568594  40.7345890  44.8895322  27.8853973
  42.1361671  43.6937432  29.1036278  42.8742501  44.4844983  29.2379400
  42.3687906  42.4460995  29.6825005  43.2793802  42.2625983  30.2528102
  41.4492417  41.3939529  29.5529963  41.6600988  40.4301601  30.0164005
  40.2979730  41.6418105  28.8052931  38.7597505  39.7689461  31.4184503
  39.3121359  39.0728516  32.2768400  38.6651789  41.1034703  31.5639749
  38.2890294  41.6240146  30.7844594  39.1678618  41.8397652  32.7002643
  40.1951808  41.5155836  32.8664603  39.1719531  43.3528716  32.3888382
  38.1491978  43.6942113  32.2289665  39.6087591  43.8956937  33.2270774
  39.7607922  43.5378466  31.4904217  38.3996195  41.5104106  33.9754566
  39.0095947  41.2155084  35.0013343  37.0469535  41.4603475  33.9225487
  36.5998963  41.7440284  33.0624531  36.1972235  41.0972448  35.0605629
  36.4528696  41.7340628  35.9074437  34.6798409  41.2681481  34.7491529
  34.5126013  40.9246254  33.7283089  34.0115393  40.7350899  35.4254088
  34.2682195  42.7160912  34.7893326  34.3717459  43.5348935  33.6563369
  34.6498823  43.0891460  32.7013242  34.1227830  44.9094321  33.7409013
  34.2401109  45.5351807  32.8561564  33.7256660  45.4799543  34.9518466
  33.5158180  46.5476095  35.0164694  33.5982823  44.6756238  36.0816178
  33.2976907  45.1165974  37.0320320  33.8559368  43.3015621  35.9975320
  33.7372470  42.6699307  36.8779037  36.4504776  39.6767313  35.5498286
  36.4987839  39.4069351  36.7550267  36.6512626  38.7270388  34.6172727
  36.4600707  38.9673018  33.6550779  37.0810571  37.3646696  34.9181909
  36.3868428  36.8951921  35.6151533  37.1126165  36.5302729  33.6134166
  36.1039078  36.5257174  33.2003969  37.7870120  37.0304352  32.9183422
  37.5509111  35.1822724  33.8166912  37.5502529  34.7156337  32.9777349
  38.4456117  37.2724769  35.5906374  38.5921918  36.6461538  36.6450679
  39.4784355  37.9371785  35.0268529  39.3275257  38.4099801  34.1472029
  40.8135029  37.9405825  35.5879451  41.1066731  36.9000214  35.7271688
  41.7934262  38.6004843  34.5938857  41.5182434  39.6454791  34.4511958
  42.8072516  38.5431157  34.9900765  41.7475613  38.0793913  33.6376129
  40.9027451  38.6299835  36.9453334  41.4759831  38.0882999  37.8896676
  40.2972671  39.8248022  37.1017226  39.9450472  40.2916901  36.2782810
  40.2732161  40.5465585  38.3698261  41.2540159  40.5374677  38.8452715
  39.8009483  41.9841208  38.2095457  38.8683184  41.9680568  37.6455919
  39.5719313  42.6917760  39.5616501  40.5042984  42.7086422  40.1260151
  39.2360810  43.7136270  39.3852246  38.8134236  42.1536102  40.1301065
  40.8045042  42.7845539  37.3441699  40.8196374  42.2945213  36.3706506
  40.3819481  43.7839791  37.2407533  42.2383589  42.8886755  37.8872055
  42.6617702  41.8895954  37.9904599  42.8476748  43.4713350  37.1963065
  42.2240805  43.3790515  38.8605643  39.5035764  39.8077374  39.4389692
  40.0025973  39.6403550  40.5558736  38.3177952  39.2524667  39.1194423
  37.9477549  39.3688555  38.1869064  37.5395759  38.4809052  40.0803105
  37.3173868  39.1354151  40.9231320  36.6096522  38.1906791  39.5913219
  38.2324403  37.2439457  40.5895689  38.0892222  36.8782719  41.7537443
  39.0446149  36.5811848  39.7473692  38.9674974  36.7815877  38.7604594
  39.9480673  35.5263172  40.1664266  39.4166574  34.7708563  40.7452026
  40.5449621  34.8532743  38.9021961  39.7475322  34.3456476  38.3594993
  40.9590356  35.6468408  38.2801870  41.6434229  33.8488179  39.2022181
  42.8126547  34.1312429  38.9114841  41.3341495  32.6854761  39.7972735
  42.0625124  32.0152375  39.9981900  40.3745703  32.4859894  40.0412275
  41.0354799  36.0332267  41.1254212  41.2529997  35.4288953  42.1776291
  41.7052691  37.1707001  40.8205609  41.5350290  37.5911960  39.9181747
  42.7392408  37.7573676  41.6760338  43.4754333  36.9838146  41.8945185
  43.4582780  38.9524486  41.0420519  42.7160405  39.7083382  40.7855104
  44.4990546  39.5604514  42.0117811  45.2419385  38.8052329  42.2684317
  44.9921208  40.4063087  41.5327075  43.9974604  39.8988096  42.9184335
  44.1938401  38.4992958  39.7651040  43.4734736  38.0933484  39.0549063
  44.7040093  39.3519956  39.3170751  44.9248107  37.7317096  40.0192582
  42.2074109  38.1517204  43.0517782  42.8442841  37.8668920  44.0680637
  41.0014831  38.7630413  43.1268514  40.5385491  38.9687554  42.2530818
  40.3353661  39.1402924  44.3674495  40.9300499  39.8859153  44.8951775
  38.9297869  39.7456100  44.0667245  38.4329414  39.0461483  43.3944171
  38.3988027  39.7735989  45.0182351  38.9286265  41.1635379  43.4314859
  39.4891538  41.8454670  44.0709252  39.4461005  41.0516869  42.4786957
  37.5367188  41.7254553  43.1889889  36.6073336  40.9097705  42.9440246
  37.3572703  42.9732603  43.2907677  40.1371184  37.9486350  45.2978965
  40.4737539  37.9810436  46.4819169  39.6322565  36.8350965  44.7358375
  39.3289788  36.8889047  43.7739505  39.4310239  35.5908509  45.4511042
  38.8822951  35.7773347  46.3742616  38.6170830  34.6004672  44.5832740
  39.1413904  34.3846996  43.6523361  38.4407357  33.6707603  45.1242424
  36.9709820  35.2270593  44.1036253  36.6095317  34.1514510  43.4098538
  40.7166184  34.9095480  45.9170863  40.8239985  34.4882516  47.0696160
  41.7456095  34.8091882  45.0442850  41.5722959  35.0853393  44.0883549
  43.0478644  34.2412433  45.3747481  42.9094203  33.2620395  45.8331064
  43.9311885  34.0757445  44.1073165  44.0026380  35.0618631  43.6484436
  44.9165023  33.7649666  44.4546981  43.4065371  33.0565668  43.0626009
  42.4125476  33.3515470  42.7263385  44.0858710  33.0336935  42.2104951
  43.3238155  31.6571381  43.6565650  44.2734631  31.1916038  44.3043893
  42.1916311  30.9518989  43.4617130  42.1081864  30.0207882  43.8440366
  41.4319240  31.3578098  42.9342828  43.7943959  35.0418308  46.4356361
  44.4059000  34.4829699  47.3456972  43.7327862  36.3878465  46.3764501
  43.3180169  36.8034368  45.5546530  44.3051788  37.2696518  47.3805378
  45.3632246  37.0508178  47.5245858  44.1637448  38.7363421  46.8998132
  44.6536898  38.8556330  45.9334681  43.0997942  38.9492055  46.7958990
  44.7355980  39.8109255  47.8135662  44.0558408  40.6987102  48.6009940
  42.9673963  40.6471362  48.5740040  44.9393836  41.4981255  49.2851733
  44.6910422  42.2338213  49.9310663  46.2185007  41.1236974  48.9570880
  47.4498231  41.5936413  49.3828897  47.4540889  42.4111988  50.1037782
  48.6080467  40.9973430  48.8678943  49.5908674  41.3468904  49.1840905
  48.5255732  39.9498253  47.9449719  49.4225233  39.4820409  47.5390682
  47.2818906  39.4705995  47.5146903  47.2562709  38.6477963  46.8002400
  46.1333275  40.0635747  48.0288907  43.6980573  37.0880071  48.7710160
  44.4252573  37.0018624  49.7626058  42.3602947  36.9625185  48.8861672
  41.7782097  37.1525660  48.0829497  41.7098536  36.6403314  50.1502917
  42.0034637  37.3578223  50.9165157  40.1646091  36.6995388  49.9797638
  39.7558414  37.6679901  49.6914751  39.9211658  35.9610510  49.2159110
  39.4367715  36.2795757  51.2341100  38.9035596  34.9864121  51.3449879
  38.9586786  34.3134848  50.4892831  38.3065557  34.5570904  52.5352094
  37.8956039  33.5500829  52.6070088  38.2372194  35.4200783  53.6325122
  37.7595198  35.0943684  54.5565338  38.7826670  36.7040808  53.5425713
  38.7351226  37.3806451  54.3958593  39.3907160  37.1198362  52.3533325
  39.8381880  38.1115868  52.2877616  42.1367720  35.2802853  50.7059007
  42.4711685  35.1381067  51.8830427  42.1880588  34.2437199  49.8544150
  41.9123167  34.3908726  48.8939924  42.4957210  32.8909477  50.2826817
  41.9916807  32.6743208  51.2245497  42.0164782  31.8774723  49.2225212
  42.4462322  32.2326395  48.2858959  42.4181950  30.8912504  49.4550938
  40.4814007  31.7876664  49.0826792  40.0780933  32.7872133  48.9203526
  40.1100350  30.8881766  47.8972039  40.5126315  29.8882644  48.0590387
  39.0250704  30.8324982  47.8085894  40.5281055  31.3036057  46.9802872
  39.7991747  31.2738706  50.3627357  40.0204725  31.9492483  51.1891688
  38.7210494  31.2306814  50.2081986  40.1720704  30.2772248  50.5988392
  43.9584074  32.6731392  50.6437427  44.3036160  31.6824654  51.2914198
  44.8423385  33.6308055  50.3190412  44.5302452  34.3772058  49.7144060
  46.2131154  33.6434280  50.7698752  46.5987093  32.6279829  50.8609119
  47.0525836  34.3961591  49.7225606  46.6842338  35.4175529  49.6267832
  48.0959049  34.4147699  50.0375758  46.9730555  33.8900760  48.7604513
  46.3613209  34.3253600  52.1378722  47.4675285  34.4732828  52.6535055
  45.2426718  34.7154455  52.7957071  44.3519966  34.6290146  52.3273839
  45.2620703  35.2563380  54.1528132  44.3837424  34.8691512  54.6692682
  46.1630784  34.8819512  54.6387333  45.2526240  36.7524823  54.2295146
  45.5633795  37.3230788  55.2721136  44.8683178  37.4328564  53.1383992
  44.6368525  36.9220395  52.2984056  44.8170206  38.8822560  53.0981714
  45.3497758  39.2890174  53.9577156  45.4691694  39.4250813  51.8130502
  44.9107925  39.0133647  50.9723338  45.4794897  40.5128363  51.7438929
  46.8775142  38.9749048  51.6498813  47.8447592  39.4582576  52.5037290
  47.7656625  40.1494429  53.2359218  48.9436874  38.8123896  52.1621778
  49.8468982  39.0449981  52.7262723  48.7327264  37.9517741  51.1382083
  47.4038101  38.0558597  50.8012861  46.9987693  37.4529068  49.9885801
  43.3665701  39.3440848  53.1953302  42.4699408  38.5428617  52.9344941
  43.0199872  40.5710788  53.5908639  43.9504660  41.5978192  54.0486622
  44.4379880  42.0510793  53.1855412  44.7025418  41.1400180  54.6912344
  43.0612452  42.5822845  54.8036427  43.4945845  43.5824397  54.8012701
  42.9038673  42.2575033  55.8321614  41.7506997  42.5380826  54.0091941
  41.7288725  43.2188779  53.1582298  40.9178584  42.7631883  54.6753791
  41.6513239  41.0810660  53.5170559  41.0702064  40.5219182  54.2503734
  40.9898870  40.9631157  52.1487945  41.6733416  41.0665004  51.1299568
  39.6592031  40.7440802  52.0906833  39.1650598  40.4831476  52.9320132
  38.9182060  40.7890343  50.8432538  39.4585169  40.2314549  50.0782254
  37.5122462  40.1650944  51.0094191  37.7182132  39.1744512  51.4147622
  36.9481841  40.7456983  51.7393732  36.6868237  40.0284934  49.7125922
  36.6894666  40.9917586  49.2024805  37.2625988  38.9525044  48.7778726
  37.2598504  37.9888042  49.2871596  36.6521880  38.8885741  47.8770883
  38.2846126  39.2160833  48.5056332  35.2158585  39.7266736  50.0404977
  34.8025909  40.5383717  50.6392093  34.6483772  39.6335192  49.1145449
  35.1519507  38.7937825  50.6006128  38.8187617  42.2142385  50.3141063
  38.2018415  43.0910102  50.9199543  39.4554170  42.4706683  49.1610895
  39.7458878  41.6903951  48.5893380  39.7298440  43.8177451  48.6815034
  39.2625664  44.4991502  49.3924450  41.2219061  44.1202698  48.6258578
  41.6770870  43.4036748  47.9421895  41.5354852  45.5463461  48.1547096
  41.0809902  46.2635510  48.8381941  42.6151845  45.6949212  48.1381608
  41.1333721  45.6951385  47.1525787  41.7876254  44.0376563  49.9221794
  42.7269291  44.2300388  49.8742449  39.1866445  43.9547478  47.2855842
  39.4167577  43.0911759  46.4450233  38.4508955  45.0485525  46.9957104
  38.2218089  45.6838257  47.7467407  37.9341771  45.3374045  45.6654685
  37.5368737  44.4229889  45.2249083  36.7989823  46.3966719  45.7188675
  37.2039702  47.3173069  46.1390046  36.4056387  46.5951281  44.7218741
  35.6555135  45.9169982  46.6074771  35.0609271  44.8533279  46.4133157
  35.2969943  46.7422949  47.6200058  34.5460632  46.4775701  48.2413937
  35.7822240  47.6186564  47.7490152  39.0496871  45.8332160  44.7419895
  39.7662937  46.7816829  45.0790363  39.2399094  45.2067868  43.5663570
  38.5938296  44.4801214  43.2931581  40.3780302  45.4773367  42.7032349
  40.9868353  46.2719131  43.1346327  41.2544952  44.2130564  42.5464600
  40.5595895  43.4733205  42.1489728  42.0444668  44.3968505  41.8182673
  41.8757594  43.6832139  43.8563106  41.0864103  43.5429275  44.5947878
  42.5839145  42.3445764  43.6041166  43.3737562  42.4841696  42.8660363
  43.0179279  41.9813757  44.5356844  41.8635470  41.6164314  43.2313218
  42.8380512  44.6816239  44.5209768  42.3014878  45.5996584  44.7605842
  43.2389541  44.2462578  45.4363098  43.6567905  44.9076732  43.8378468
  39.9422838  45.9932593  41.3436412  38.7762717  45.9252332  40.9861818
  40.8859294  46.5761424  40.5753207  41.8488119  46.4771035  40.8636744
  40.5987172  47.3616706  39.3754655  39.6152069  47.8266091  39.4435734
  41.6781349  48.4898666  39.2505203  41.5080878  49.1516649  40.0997589
  42.6389305  47.9886549  39.3678181  41.6849547  49.2596266  38.0379528
  42.3853436  49.9148991  38.0788553  40.5809246  46.5767074  38.0693884
  41.6231008  46.1551764  37.5571148  39.3959762  46.4307784  37.4313750
  38.5498436  46.4923724  37.9794308  39.2804591  46.1002721  36.0180745
  39.9025535  45.2292820  35.8119823  37.8272324  45.7814662  35.5935985
  37.2097528  46.6219601  35.9104393  37.8190353  45.7150477  34.5056548
  37.2620214  44.4702127  36.1949851  36.5214061  44.0582929  35.5094839
  38.1242370  43.8048975  36.2401406  36.6470476  44.6031636  37.5901497
  36.6197026  45.7376634  38.1182013  36.1472648  43.5637477  38.1031651
  35.7959534  43.7722755  38.9718974  39.8340956  47.1715852  35.0928366
  40.4125584  46.8639291  34.0458703  39.6881178  48.4699482  35.4390445
  39.2006982  48.6873781  36.2965092  40.0959435  49.5709335  34.5789511
  39.6493813  49.4220235  33.5958401  39.6669463  50.9550806  35.1110893
  38.6541923  50.8616817  35.5031418  40.3456125  51.2256616  35.9199763
  39.6988329  52.0544074  34.0217712  39.3806986  53.0092160  34.4403783
  40.7016677  52.1562160  33.6069706  38.7429784  51.6728388  32.8972590
  37.5925050  51.3086269  33.1628329  39.1772422  51.7357253  31.6259517
  38.5554714  51.4860177  30.8702080  40.1231644  52.0323757  31.4327391
  41.5765506  49.6017723  34.2707018  41.9913414  49.9288098  33.1567318
  42.4105359  49.1818500  35.2393482  42.0151155  48.9899035  36.1486879
  43.8336682  48.9936432  35.0564532  44.3202553  49.9522580  34.8764808
  44.4438722  48.3605090  36.3315839  44.2685052  49.0719501  37.1385518
  43.8757889  47.4497420  36.5210169  45.9469637  48.0232026  36.2617764
  46.1309133  47.5238369  35.3105155  46.4992962  48.9624372  36.2912601
  46.5134092  46.9551034  37.6157463  45.7364431  45.4193791  37.0251121
  46.1283327  45.1691574  36.0392568  45.9576886  44.6091407  37.7198529
  44.6572171  45.5585866  36.9619156  44.1415227  48.0841851  33.8819586
  44.9359891  48.4342112  33.0125778  43.4780553  46.9160957  33.7765498
  42.8798232  46.5970701  34.5251755  43.6459420  46.0609495  32.6201174
  44.7081622  45.9041573  32.4324909  42.9784519  44.6903793  32.8480063
  41.9561137  44.9126041  33.1538495  42.9653698  44.1644696  31.8933609
  43.6509478  43.8046119  33.9121911  43.6876846  44.3323130  34.8652298
  42.8288516  42.5195907  34.0710850  42.7920507  41.9910722  33.1185028
  43.2933101  41.8810955  34.8225522  41.8161148  42.7720671  34.3852825
  45.0976566  43.4598222  33.5281720  45.6765498  44.3780783  33.4292393
  45.5403053  42.8335394  34.3027256  45.1042063  42.9228273  32.5796507
  43.0912275  46.6725402  31.3407684  43.7856074  46.7788973  30.3378618
  41.8423927  47.1781804  31.3600959  41.3180533  47.1559124  32.2230395
  41.1737564  47.6703437  30.1541018  41.1733799  46.8913357  29.3917071
  39.7263931  48.0673270  30.4478579  39.7342783  48.8264547  31.2300102
  39.0119646  48.6238941  29.1986061  39.0032741  47.8651154  28.4161226
  37.9871460  48.8924807  29.4549427  39.5400690  49.5078182  28.8409954
  38.9396099  46.8415870  30.9427588  39.3994057  46.4574667  31.8533309
  37.9092442  47.1301985  31.1504835  38.9518978  46.0673338  30.1756332
  41.9099254  48.8284749  29.4840060  42.0072337  48.9071053  28.2485747
  42.4455020  49.7591353  30.2931301  42.2527720  49.6714589  31.2806864
  43.2152918  50.9031809  29.8413832  42.8540865  51.1957530  28.8554667
  43.1051479  52.1194650  30.7887076  43.4939707  51.8229432  31.7628692
  43.7216628  52.9202933  30.3804389  41.7628760  52.5796785  30.9329387
  41.7450417  53.3328867  31.5278833  44.7015013  50.6498494  29.6267545
  45.2874033  51.1985832  28.6905221  45.3803389  49.8548923  30.4852909
  44.8726355  49.2952188  31.1554417  46.8386694  49.8104345  30.5103630
  47.2325977  50.5862416  29.8538243  47.3923132  50.0411033  31.9353446
  47.1404525  49.1884837  32.5659832  48.4757343  50.1522284  31.8911845
  46.8192083  51.6076320  32.6546189  47.4525357  48.5309697  30.0059742
  48.6293359  48.5401704  29.6285213  46.6967586  47.4322579  29.9115056
  45.7872638  47.4270937  30.3507001  47.1822482  46.2126445  29.3428809
  48.2520788  46.1002352  29.5187388  46.4466374  45.0396771  30.0176219
  46.5673726  45.1119427  31.0985011  45.3915825  45.1400245  29.7628875
  46.9531370  43.6987299  29.5435367  47.8409600  43.6832360  28.6509028
  46.4590858  42.6934091  30.1107247  47.0459264  46.3449194  27.8379794
  45.9397749  46.3831070  27.2696305  48.1819776  46.5204731  27.1530607
  49.0353562  46.6029719  27.6869504  48.2527365  46.6825894  25.7190187
  47.2726065  46.9640627  25.3340289  49.2709652  47.7873875  25.3370337
  50.2581782  47.4188054  25.6157039  49.2198846  47.9051448  24.2546179
  49.0208208  49.1532249  26.0158909  49.1443530  49.0085975  27.0891679
  49.7848883  49.8401924  25.6520523  47.6265843  49.7416424  25.7349580
  47.5027994  49.7735985  24.6524816  46.8955244  49.0561733  26.1636572
  47.4132030  51.1416700  26.3138676  47.6184650  51.1312617  27.3843160
  48.0829270  51.8477077  25.8228690  46.0115912  51.5519924  26.0852199
  45.3908570  50.8981314  26.5404721  45.8650102  52.4760670  26.4656146
  45.8213089  51.5621150  25.0933584  48.5878766  45.3750198  25.0306956
  48.8707331  45.3764188  23.8205856  48.5532154  44.2254632  25.7315059
  48.5046351  44.2698892  26.7393579  48.6890904  42.9165507  25.1028788
  49.1251456  43.0851891  24.1182387  49.5702830  41.9100896  25.8654334
  49.8261483  41.0842793  25.2016032  50.8565692  42.5936128  26.3506559
  50.6015068  43.4192975  27.0149508  51.4714853  41.8719560  26.8884186
  51.4112183  42.9755477  25.4935733  48.9468953  41.3711418  27.0171839
  49.5447638  40.7541453  27.4455166  47.3011275  42.3563684  24.8703198
  47.1349605  41.3894838  24.1166064  46.2791985  43.0289323  25.4334121
  46.5448074  43.7125562  26.1278252  44.8768800  42.8012597  25.2013213
  44.7565379  42.0165603  24.4544185  44.1532446  42.3628084  26.5022457
  44.6275803  42.9287390  27.3040110  43.0869464  42.5878761  26.4809713
  44.3517802  40.8778687  26.7455985  44.0435473  40.0909991  25.8099791
  44.7283498  40.4724824  27.8662239  44.2609545  44.0620336  24.5916075
  44.9250162  45.0853321  24.4000446  42.9680641  44.0174372  24.1957040
  42.3935291  43.2472892  24.5069610  42.3992607  44.9632225  23.2362652
  43.1527102  45.7148330  23.0006918  41.9469621  44.2865733  21.9195269
  41.3512102  43.4062068  22.1606364  41.3400080  44.9906121  21.3502851
  43.0791853  43.8962728  21.1407552  42.7809063  43.4791002  20.3292157
  41.2646472  45.7942950  23.8115318  40.3160406  46.1841668  23.1240702
  41.3323537  46.1361072  25.1123320  42.0753187  45.7384921  25.6691125
  40.3906591  47.0500420  25.7622317  40.7117918  47.1374837  26.8001754
  40.5028859  48.0136714  25.2653183  38.9322194  46.6462532  25.7302296
  38.5409686  45.5958937  26.2430431  38.0714831  47.4788096  25.1079308
  38.4209495  48.3548920  24.7467492  36.6525056  47.1970855  24.9773186
  36.3318065  46.5862500  25.8211973  35.8028274  48.4943279  24.9532760
  36.1737849  49.1578256  24.1720843  34.7613791  48.2434633  24.7518997
  35.8016180  49.3432068  26.5574867  36.3268455  46.3929743  23.7359868
  35.1578611  46.1149948  23.4828861  37.3524804  45.9454557  22.9816698
  38.2885842  46.2439958  23.2155132  37.1766883  45.0498719  21.8469557
  36.1353685  45.0961528  21.5281917  38.0801646  45.4115019  20.6411613
  39.1226510  45.3640595  20.9559160  37.9086843  44.6884833  19.8437037
  37.7868180  46.7246739  20.1637023  38.3562403  46.9287280  19.4182360
  37.5037250  43.6132399  22.2033255  37.3588089  42.7238413  21.3625815
  37.9312738  43.3226682  23.4496638  38.0976469  44.0797867  24.0971134
  38.1658405  41.9551616  23.9078962  37.4651663  41.7615436  24.7200951
  37.9446579  41.2915271  23.0719734  39.5653319  41.6829242  24.3926904
  40.4445916  42.5371978  24.3477783  39.8036214  40.4560942  24.8980737
  39.0751984  39.7564554  24.8958882  41.0950275  40.1022374  25.4546442
  41.8502691  40.1361274  24.6694304  41.3574356  40.8097323  26.2412142
  41.0558986  38.7183299  26.0354642  40.0172264  38.0588876  26.0232242
  42.1953304  38.2402568  26.5588669  42.9936026  38.8589157  26.5699150
  42.3509434  36.9111567  27.1046907  41.3945393  36.3897162  27.0660865
  43.3942541  36.0919939  26.3035215  44.3131001  36.6636290  26.4341149
  43.5123391  35.1071302  26.7554060  43.0965243  35.9341830  24.7969696
  42.8939995  36.9158108  24.3686105  44.2993804  35.3013118  24.0803623
  44.5022380  34.3193930  24.5078937  44.0761107  35.1956927  23.0187145
  45.1743040  35.9392573  24.2054008  41.8166966  35.1252176  24.5283863
  40.9652488  35.6285808  24.9863838  41.6556472  35.0453253  23.4533135
  41.9206960  34.1274955  24.9548060  42.8204082  36.9657259  28.5497671
  43.7631036  37.6639461  28.9040608  42.2137951  36.1746076  29.4600602
  41.4204417  35.6154352  29.1807469  42.6063957  36.1649304  30.8648218
  42.5369095  37.1782470  31.2603725  41.7035535  35.2411630  31.7123257
  41.7281645  34.2557077  31.2471684  42.1475180  35.1844263  32.7061951
  40.2420172  35.7175075  31.8291922  39.8380183  35.2152345  32.7081731
  40.2959468  36.7898786  32.0168457  39.1432740  35.4125270  30.4067387
  38.8482518  33.6564873  30.7442538  38.3859388  33.5471946  31.7252842
  38.1849946  33.2460550  29.9828499  39.7961379  33.1185783  30.7279066
  44.0614981  35.7844126  31.1245410  44.7192186  36.3592999  31.9880284
  44.5944938  34.8135481  30.3563440  43.9615534  34.2620326  29.7948135
  45.9982124  34.4192081  30.4054364  46.2866654  34.2560210  31.4438313
  46.2615008  33.1145715  29.6065931  45.9584623  33.2134607  28.5642458
  47.3226032  32.8698531  29.6542862  45.4716161  31.9774762  30.2366624
  45.0928520  32.0628647  31.4179513  45.1742807  30.9076590  29.4853358
  44.6505484  30.1427052  29.8861476  45.4753692  30.8715410  28.5219345
  46.9572645  35.5313934  29.9917253  47.9838469  35.7207226  30.6459454
  46.6346452  36.3418848  28.9503414  45.8132570  36.1189675  28.4065320
  47.4130524  37.5217715  28.5780183  48.4321309  37.2055133  28.3553999
  46.8442638  38.2660993  27.3426214  45.7655297  38.3436843  27.4783142
  47.2796939  39.2650607  27.3186050  47.1184445  37.5850502  26.0130191
  47.6153462  36.4637040  25.9207078  46.7828660  38.3123293  24.9179624
  46.9339661  37.9295973  23.9955825  46.3834577  39.2332015  25.0300702
  47.4512151  38.5328710  29.7109294  48.5284754  39.0007694  30.0907996
  46.2857797  38.8068723  30.3269729  45.4480843  38.3927239  29.9437668
  46.1524824  39.7125612  31.4484338  46.4960598  40.6854762  31.0970222
  44.6663352  39.8283742  31.8449131  44.3102827  38.8640874  32.2075115
  44.5567495  40.5747888  32.6316510  44.0802866  40.1282015  30.9761497
  46.9786953  39.3404911  32.6735382  47.6695904  40.1773456  33.2627746
  46.9784331  38.0505950  33.0733244  46.3445264  37.4120432  32.6145072
  47.8067642  37.5411962  34.1585813  47.5935610  38.1098634  35.0637118
  47.5408747  36.0372245  34.4430210  47.6653159  35.5347497  33.4837856
  48.2276515  35.6050276  35.1707871  46.1467231  35.7154305  34.9211453
  45.4764147  36.5035065  35.8703412  45.9527949  37.4113083  36.2405541
  44.2103813  36.1351408  36.3414793  43.7028976  36.7633950  37.0735022
  43.5980126  34.9695299  35.8781155  42.6059986  34.6898690  36.2327957
  44.2626597  34.1609011  34.9560956  43.7968553  33.2418082  34.6005754
  45.5284868  34.5304633  34.4875121  46.0522886  33.8948650  33.7735469
  49.2909371  37.7210820  33.8794575  50.0518883  38.1717743  34.7429034
  49.7061198  37.4199609  32.6361754  49.0378768  36.9496917  32.0425446
  51.0533926  37.6006889  32.1428283  51.7732934  37.1466523  32.8237781
  51.1823685  36.9152904  30.7549965  50.3096698  36.2697959  30.6558347
  51.1270372  37.7160441  30.0175468  52.4707576  36.0827710  30.5185159
  52.3028911  35.4759310  29.6287593  53.2984073  36.7689315  30.3388525
  52.8085440  35.1787676  31.6910427  51.9186193  34.3888361  32.0744904
  53.9417006  35.2805811  32.2187047  51.4855229  39.0612135  32.1254696
  52.5616576  39.4008784  32.6201129  50.6299361  39.9971518  31.6493270
  49.7835112  39.6730139  31.2036829  50.8922975  41.4339942  31.6755418
  51.8267388  41.6303088  31.1498240  49.7586479  42.2579689  30.9992087
  49.7524786  41.9419602  29.9560406  48.7763133  42.0818085  31.4374853
  49.9723593  43.7803223  30.9963192  50.6890300  44.5350158  30.1127572
  51.1036261  44.0113232  29.2513886  50.7317901  45.8513817  30.5237104
  51.2162746  46.6029247  30.0540750  50.0149054  45.9699451  31.6903401
  49.7555503  47.0648338  32.5055350  50.1626520  48.0290354  32.2010976
  48.9903988  46.8670536  33.6645480  48.7593618  47.7046589  34.3226811
  48.5124196  45.5937591  33.9937091  47.9362925  45.4282273  34.9040806
  48.7596365  44.4952596  33.1643499  48.3647359  43.5225779  33.4576834
  49.5176623  44.6889405  32.0176422  51.1164695  41.9775341  33.0847417
  52.0451152  42.7489730  33.3245337  50.2933866  41.5468132  34.0694630
  49.5260375  40.9367230  33.8264307  50.4251209  41.9735073  35.4601603
  50.3579025  43.0591668  35.5303332  49.3488406  41.3370885  36.3461879
  49.3302563  40.2655357  36.1473670  49.6269466  41.5773540  37.8469838
  49.6452209  42.6487500  38.0466771  48.8417068  41.1107675  38.4417915
  50.5903782  41.1422798  38.1127078  47.9472606  41.8812756  35.9961266
  47.8853192  42.8981142  36.3838163  47.8667735  41.9018292  34.9092969
  46.8013231  41.0413933  36.5780218  46.8808797  41.0207591  37.6649186
  45.8460352  41.4818194  36.2924535  46.8623355  40.0244729  36.1904007
  51.8019721  41.6515068  36.0212373  52.4655571  42.5103337  36.6081548
  52.2953888  40.4197632  35.8096771  51.7019456  39.7272884  35.3756229
  53.6203101  40.0123734  36.2538868  53.8026452  40.3645868  37.2691695
  53.7361444  38.4963412  36.2373690  53.5234169  38.1503231  35.2258762
  55.1405515  38.0164065  36.6601258  55.3538217  38.3616728  37.6717620
  55.1762280  36.9273186  36.6333830  55.8849955  38.4207546  35.9742633
  52.6890807  37.9385180  37.2165584  51.6930333  38.2464642  36.8985004
  52.7457361  36.8500589  37.2286710  52.8854851  38.3232083  38.2173278
  54.7390272  40.6341123  35.4392288  55.6461901  41.2567381  35.9959501
  54.6908372  40.5224170  34.0979895  53.9105268  40.0283116  33.6892417
  55.7784647  40.9323513  33.2273563  56.7299239  40.6248025  33.6612207
  55.6402166  40.2843110  31.8286314  54.6981114  40.6268867  31.4006374
  56.4682554  40.6439213  31.2177859  55.6587055  38.7301440  31.8628246
  56.5642379  38.3960501  32.3692761  54.7851964  38.3797917  32.4126765
  55.6302166  38.1242823  30.4680837  56.2730562  37.0755989  30.1812852
  54.8993893  38.7270596  29.5332977  54.8641735  38.3442251  28.5993282
  54.3833415  39.5645668  29.7621594  55.9851137  42.4408214  33.1325354
  57.1265172  42.9131919  33.1788405  54.8987976  43.2276486  33.0293739
  53.9928197  42.8032519  33.1679047  54.9557325  44.6463731  32.7382360
  55.9734439  44.9466251  32.4888142  54.0408393  44.9445027  31.5257261
  53.0275587  44.6850380  31.8323852  54.1026734  46.0182988  31.3489819
  54.3971725  44.1829333  30.2177672  54.3886093  43.1273029  30.4891928
  53.6183463  44.3740602  29.4795264  55.7596511  44.5456958  29.6262965
  56.3027619  45.6240368  29.9675770  56.2350477  43.7375192  28.7850791
  54.4865366  45.5337321  33.8936106  54.7736896  46.7302386  33.9388784
  53.7607361  44.9884783  34.9014692  53.4750209  44.0214330  34.8441138
  53.2364737  45.7999659  35.9916348  53.5976414  46.8235239  35.8917045
  51.6800962  45.8176051  35.9727714  51.3580208  45.7065700  34.9373787
  51.2931984  44.9876814  36.5640723  51.1069433  47.1171908  36.5242618
  50.2330635  47.1520569  37.4034680  51.5707294  48.2655454  35.9964614
  51.2184655  49.1505760  36.3322154  52.2688365  48.2368343  35.2671309
  53.7925972  45.4224825  37.3548274  53.2527878  45.8258421  38.3859268
  54.9081408  44.6666227  37.4145288  55.2161636  44.2254135  36.5598033
  55.6073482  44.3383104  38.6542905  56.4467081  43.6829166  38.4218402
  56.1502261  45.6025596  39.3829211  55.3289554  46.2843271  39.6038437
  56.6462829  45.3192439  40.3112313  57.1522710  46.3210399  38.4970893
  58.2964643  45.8763006  38.3617134  56.7578108  47.4517814  37.8729975
  57.4052632  47.9487655  37.2780924  55.8171222  47.7953714  38.0039621
  54.7847222  43.4729044  39.6124664  54.9780440  43.4872074  40.8262753
  53.8345503  42.6843732  39.0743902  53.7472682  42.6772576  38.0681941
  52.9315260  41.8469951  39.8516668  52.5644529  41.0599144  39.1929859
  53.5106098  41.4021475  40.6609084  51.7571755  42.5826894  40.4370801
  50.9346955  41.9603056  41.1045067  51.6242569  43.9048667  40.2173240
  52.2649145  44.3503538  39.5760764  50.6719599  44.7344761  40.9223038
  50.6344977  44.3314251  41.9343541  51.1887837  46.1861395  40.9887456
  51.2232455  46.6064549  39.9836349  50.5194844  46.7826298  41.6086957
  52.1893869  46.1967031  41.4209271  49.2561686  44.7236137  40.3636663
  49.0169335  44.7309468  39.1555885  48.2510225  44.7233142  41.2589200
  48.4593320  44.5105853  42.2240380  46.8723496  44.9600853  40.8910647
  46.8214124  45.2958781  39.8553293  46.0095918  43.7155955  41.0417835
  45.9912163  43.4224066  42.0914510  44.5723344  43.9926175  40.5610933
  44.5898560  44.2854362  39.5113071  43.9700617  43.0914665  40.6763968
  44.1387679  44.7972267  41.1550005  46.6324398  42.5706255  40.2152015
  47.6396243  42.3659650  40.5782381  46.0209400  41.6740662  40.3169320
  46.6772556  42.8620890  39.1658487  46.3775864  46.0928985  41.7689153
  46.3843115  46.0167847  43.0013915  45.9822634  47.2227913  41.1529804
  46.1359056  47.3010000  40.1578036  45.4753215  48.3833566  41.8649651
  46.1024770  48.5569542  42.7394015  45.4709259  49.6677104  40.9953049
  44.7932460  49.5219799  40.1541083  45.1231334  50.5048289  41.6005926
  46.8518160  49.9618265  40.4805328  47.9357461  50.1122559  41.3564624
  47.7590460  50.0254846  42.4285385  49.2236700  50.3687816  40.8791905
  50.0565680  50.4676201  41.5753326  49.4457474  50.4728769  39.5088140
  50.7462608  50.7456340  39.0500096  51.3836164  50.8376001  39.7619925
  48.3749998  50.3309939  38.6189855  48.5470540  50.4055437  37.5452350
  47.0831637  50.0934119  39.1066415  46.2459710  50.0092673  38.4137286
  44.1064594  48.1641469  42.4920286  43.3062716  47.3469244  42.0335235
  43.8085368  48.8884882  43.5911832  44.5691849  49.3610967  44.0582539
  42.4765074  48.9521982  44.1951861  42.1824215  47.9180527  44.3745062
  42.4009135  49.7234940  45.5267418  41.3788213  49.6784281  45.9027696
  43.3512599  49.1145977  46.5596295  44.3736711  49.1597314  46.1844791
  43.2819795  49.6743934  47.4923289  43.0761559  48.0752486  46.7389944
  42.7963751  51.0868718  45.4321373  42.7240215  51.5016353  46.2948867
  41.4490160  49.5359427  43.2343958  41.7871332  50.3763596  42.4038122
  40.1626185  49.1175900  43.3186236  39.9390217  48.3353515  43.9171274
  39.0789984  49.7388531  42.5541594  39.2965157  49.6667747  41.4885186
  37.7261252  49.0325709  42.8328571  37.8320746  48.0169582  42.4515373
  37.6188888  49.0036531  43.9171837  36.4607159  49.6954072  42.2025657
  35.6236999  49.0981507  42.5642145  36.3751713  50.7111703  42.5885795
  36.4402274  49.7281026  40.6698873  37.3017886  49.0823619  40.0296090
  35.5651810  50.4550488  40.1201674  38.9274832  51.2152986  42.8861907
  38.8667918  52.0693200  42.0091992  38.9705594  51.5794920  44.1815654
  39.0383540  50.8453128  44.8718437  38.8404021  52.9503564  44.6446291
  37.9045477  53.3775810  44.2844141  38.8405319  52.9933854  46.1957830
  39.7238565  52.4434625  46.5204700  38.9175337  54.0299574  46.5239432
  37.5948427  52.3589415  46.8049302  37.6472373  52.0968356  48.0326925
  36.6110801  52.1033268  46.0701266  39.9099581  53.8970594  44.0981343
  39.6466259  55.0827692  43.8753939  41.1537318  53.4126134  43.8696127
  41.3965152  52.5135577  44.2605786  42.2186960  54.2284255  43.2987153
  41.9956538  55.2732800  43.5146563  43.6435852  53.8959835  43.8544698
  44.2526868  54.7667708  43.6119332  43.5181329  53.8306110  44.9352511
  44.2934279  52.7102968  43.3763938  45.1535710  52.6261744  43.7943375
  42.1734095  54.3022460  41.8034907  42.5914687  55.3166665  41.2157259
  41.5706434  53.3260867  41.1316014  41.1953335  52.5329974  41.6318525
  41.4956586  53.3238487  39.6915232  41.5771787  54.3431696  39.3141127
  42.6534629  52.4790313  39.0932508  43.5521688  52.6263990  39.6921746
  42.3120827  51.4492434  39.1985900  42.9655962  52.7613639  37.6357056
  42.1254119  53.4670530  36.7456656  41.1518033  53.8076599  37.0980470
  42.5258597  53.7312604  35.4282241  41.8492139  54.2474026  34.7471591
  43.7598152  53.2770083  34.9718167  44.2019462  53.5321948  33.6627495
  43.5709747  54.0382728  33.1456811  44.6135066  52.6077467  35.8435373
  45.5962512  52.2883380  35.4967065  44.2163691  52.3444316  37.1584795
  44.8835371  51.8064133  37.8319209  40.1342631  52.8046475  39.2407081
  40.0792856  51.6956589  38.6987572  39.0419793  53.5552333  39.4491953
  39.0706597  54.9219609  39.9779130  39.7552626  55.5050751  39.3619609
  39.4490428  54.8783203  40.9991968  37.6366043  55.4389472  39.9104211
  37.4706899  56.0019706  38.9919570  37.4126065  56.0716153  40.7692910
  36.7975744  54.1595080  39.9408506  35.8804170  54.2769264  39.3636727
  36.5482787  53.8931164  40.9679761  37.6778824  53.0581442  39.3095807
  37.6002317  52.1489087  39.9057011  37.2849451  52.7591142  37.8841870
  37.8770549  53.3120255  36.9480652  36.2854839  51.8817379  37.6820306
  35.9756442  51.3282967  38.4680341  35.7469139  51.5731236  36.3660182
  36.5480774  51.2319193  35.7104148  34.6745232  50.4524199  36.4645345
  35.0092811  49.7008748  37.1795284  33.7652408  50.9258993  36.8348354
  34.3935477  49.7942911  35.1396479  35.4169617  49.1276090  34.4517870
  36.4182369  49.1027527  34.8818215  35.1656529  48.4988562  33.2274934
  35.9811588  48.0135608  32.6912655  33.8863757  48.5189858  32.6786742
  33.6428035  47.8623453  31.4586722  34.4249488  47.4380406  31.0983751
  32.8535373  49.1624977  33.3601851  31.8477058  49.1673104  32.9402084
  33.1061893  49.8022312  34.5825758  32.2985258  50.3114943  35.1083427
  35.2325420  52.7886746  35.5617749  34.3683731  53.5524751  35.9938800
  35.7605284  52.9868985  34.3340780  36.3501949  52.2592219  33.9560842
  35.5408829  54.1740869  33.5379526  34.7745922  54.8148869  33.9741557
  36.8671738  54.9493559  33.5019464  37.6423485  54.3238646  33.0592673
  36.7445315  55.8526039  32.9042825  37.1567467  55.2222956  34.5167128
  35.1052963  53.8313659  32.1240977  35.0055315  54.6982551  31.2543650
  34.7991342  52.5467045  31.8641386  34.7638143  51.8822911  32.6240115
  34.5783968  52.0597547  30.5116994  34.7924895  52.8632614  29.8069721
  35.4808737  50.8497750  30.1710962  35.3812850  50.1119166  30.9671782
  35.1367091  50.4181584  29.2312250  36.8493242  51.2315490  30.0456458
  37.3789709  50.4591484  29.8347628  33.1412428  51.6686274  30.2351332
  32.8357625  51.1022641  29.1886289  32.1740291  51.9899772  31.1198089
  32.4182795  52.5454489  31.9272073  30.7750956  51.5671546  30.9621696
  30.7775575  50.4775505  30.9914268  30.2375147  51.9521532  31.8287042
  30.0708344  52.0246358  29.7022124  29.2072116  51.3120189  29.1966366
  30.4883113  53.1785451  29.1406687  31.1578775  53.7142575  29.6743285
  29.9920529  53.7413199  27.8889043  28.9127369  53.5992035  27.8343220
  30.2990065  55.2619081  27.7824157  31.3845864  55.3599653  27.7819102
  29.9044992  55.5914670  26.8212420  29.7020095  56.1377932  28.9132706
  30.2090647  55.8942162  29.8469012  29.8845296  57.1829071  28.6632257
  28.2044964  55.9085639  29.0742874  27.4681005  56.1062186  28.0759188
  27.8029231  55.5270221  30.2031093  30.5248352  53.0265991  26.6437142
  30.0301303  53.2195167  25.5316397  31.5467116  52.1539890  26.7865472
  31.9927310  52.0764461  27.6894055  32.0396725  51.3143584  25.6952915
  32.1240898  50.3050497  26.0981175  31.2717733  51.3332995  24.9219408
  33.3545367  51.7095167  25.0879341  33.7967599  51.0996160  24.1167236
  34.0478980  52.7066162  25.6524221  33.5906928  53.2383285  26.3792954
  35.3579509  53.1431279  25.1998960  35.7264619  52.4712908  24.4246968
  35.3842045  54.5876526  24.6796796  36.4047718  54.9664496  24.6244026
  34.7714672  54.5462153  23.2575934  33.7506687  54.1679324  23.3121194
  34.7639597  55.5510261  22.8352196  35.3679954  53.8904871  22.6233429
  34.6538438  55.6336559  25.5682022  34.4400396  56.4776646  24.9124294
  33.7184429  55.1615715  25.8686368  35.4006470  56.1315601  26.8170710
  36.3360000  56.6042119  26.5173797  34.7815760  56.8557324  27.3466226
  35.6144055  55.2881179  27.4735863  36.3515842  52.9139665  26.3136518
  35.9786301  52.8434964  27.4862038  37.6467714  52.7487809  25.9867253
  37.8856210  52.7378701  25.0054348  38.7193691  52.5782958  26.9619397
  38.2821121  52.3528514  27.9346063  39.6909143  51.4187939  26.5703900
  39.1116010  50.4971659  26.5147387  40.1082472  51.6448167  25.5891423
  40.7505762  51.2578908  27.5118872  41.3203651  50.5376172  27.2323403
  39.4865000  53.8943002  27.0181850  40.1119871  54.2272077  26.0085155
  39.4693525  54.7176336  28.0764256  38.6015168  54.5726779  29.2423331
  39.0979499  53.9469739  29.9840534  37.6666023  54.1021517  28.9379667
  38.4013746  56.0049104  29.7242398  38.1771471  56.0319456  30.7905841
  37.5994229  56.4951676  29.1723134  39.7528071  56.6579887  29.4202386
  40.4554025  56.4869001  30.2358288  39.6582841  57.7290645  29.2414603
  40.2522886  55.9520266  28.1400723  40.0055303  56.5488746  27.2620170
  41.7620905  55.6972384  28.1754301  42.1477080  54.5797225  28.5248587
  42.6578530  56.6215389  27.8320806  42.3168518  57.9825028  27.4286012
  42.0232002  58.5577023  28.3066755  41.4888596  57.9535236  26.7203017
  43.6063439  58.4969564  26.7954198  43.6578403  59.5850779  26.8333500
  43.6970957  58.1652741  25.7610832  44.6851562  57.8554674  27.6715299
  44.9335150  58.4056914  28.5790928  45.5830026  57.7294629  27.0664727
  44.1006263  56.4781281  28.0376859  44.4404517  55.7690363  27.2828311
  44.5483761  56.0051405  29.4165021  43.9845252  56.4204015  30.4252104
  45.5802546  55.1360804  29.4786235  45.9299801  54.7590460  28.6093500
  46.1802691  54.6760008  30.7204183  45.4258019  54.1946011  31.3426183
  47.3084622  53.6470439  30.4212994  46.9091780  52.8361300  29.8121279
  48.1176992  54.1405742  29.8830956  48.1392936  52.9319803  31.8833662
  46.7537365  55.7946840  31.5776329  47.5508610  56.6119125  31.1222339
  46.3898005  55.8111182  32.8675746  45.6421669  55.1912246  33.1448387
  46.9681952  56.6754894  33.8677861  47.3379419  57.5416631  33.3190332
  45.8966311  57.1420840  34.8521609  46.3647192  57.7311359  35.6408380
  44.8555862  57.9997864  34.1236665  44.3867085  57.4112271  33.3350909
  44.0950945  58.3286182  34.8319188  45.3437023  58.8702226  33.6852786
  45.1463389  56.0502134  35.3491583  44.4823030  56.3714897  35.9635183
  48.0602231  55.8836951  34.5616994  47.8260346  54.8058810  35.1078848
  49.3184377  56.3631984  34.5271943  49.4813210  57.2717982  34.1172983
  50.4735069  55.5903643  34.9808800  50.1615817  54.5464152  35.0120600
  51.6602975  55.7156239  34.0347219  52.5284529  55.2131224  34.4612177
  51.2966646  55.0604313  32.6994363  50.4288171  55.5627323  32.2720794
  52.1386951  55.1432734  32.0122529  51.0632512  54.0082107  32.8620725
  51.9788683  57.0664151  33.7401615  52.7299341  57.0951343  33.1429382
  50.9311187  55.9418389  36.3830187  51.9501675  55.4383500  36.8655436
  50.1785933  56.7692782  37.1145430  49.3566528  57.1675041  36.6833478
  50.4953362  57.1541348  38.4716636  50.9000014  56.2778750  38.9781358
  51.5265421  58.3239243  38.5957959  51.7686129  58.4465222  39.6514809
  52.4247763  58.0382053  38.0484021  51.0235422  59.5591151  38.0752972
  51.6900425  60.2429647  38.1739216  49.1961417  57.5509996  39.1336642
  48.1646114  57.6461086  38.4656077  49.2024857  57.7753690  40.4665086
  50.0673138  57.6697454  40.9774053  48.0027881  58.1673696  41.2069357
  48.3301229  58.7722716  42.0525388  47.3967165  58.7776198  40.5373304
  47.1718734  57.0284103  41.7147796  46.0445828  57.2406930  42.1592545
  47.7249518  55.8039799  41.7120830  48.6901306  55.7124627  41.4289685
  47.0129082  54.6117775  42.1158892  46.0227434  54.9109449  42.4596504
  46.8498265  53.5653475  40.9925694  47.8062134  53.0626612  40.8485906
  46.0813464  52.8256710  41.2171067  46.4913925  54.1647212  39.7003456
  45.2867577  54.8008834  39.6143528  44.5678295  54.8976705  40.3171147
  45.2421479  55.2799964  38.3967528  44.3526644  55.8420174  38.1120590
  46.3560060  54.9713402  37.6988264  47.1734105  54.2531776  38.5302363
  48.1399149  53.8990073  38.1717200  47.7407061  53.9031191  43.2237215
  48.9523028  54.0541693  43.4019213  47.0157084  53.0732516  43.9781924
  46.0495875  52.9372496  43.7170159  47.5263776  52.3521647  45.1385094
  48.5831407  52.6076049  45.2166199  46.8394787  52.7104502  46.4536423
  45.7915637  52.4231576  46.3674014  47.4646395  52.0100851  47.6745668
  48.5125055  52.2972747  47.7617368  46.9307498  52.3070546  48.5772683
  47.3937415  50.9295481  47.5500123  46.9634614  54.1004452  46.7035748
  46.5290018  54.3166234  47.5318937  47.3254177  50.8658127  44.9282739
  46.2325354  50.4202558  44.5632970  48.3838394  50.0465644  45.1273560
  49.2662263  50.4975627  45.3225309  48.3620756  48.5903415  45.0051661
  47.9068758  48.2935367  44.0602856  49.7724273  47.9988587  45.0758850
  50.1977941  48.2497707  46.0475873  49.7691574  46.4644889  44.8962753
  49.3443267  46.2128077  43.9245365  50.7909176  46.0892489  44.9537356
  49.1699151  46.0072624  45.6836470  50.6480335  48.6426199  43.9823146
  50.6952323  49.7199270  44.1413229  51.6536545  48.2246552  44.0284839
  50.2151338  48.4390579  43.0028958  47.4699492  47.9439416  46.0587100
  47.5798314  48.2486154  47.2448675  46.5611915  47.0296392  45.6502156
  46.4875218  46.8194795  44.6650735  45.6759087  46.3280983  46.5759055
  45.7994378  46.7732445  47.5631667  44.6501230  46.4745485  46.2376521
  45.9544906  44.8599438  46.6651939  45.5227001  44.2129727  47.6168232
  46.6781814  44.2974086  45.6835688  46.9604835  44.8649958  44.8972802
  47.0773223  42.9142512  45.7052037  47.3651872  42.6073045  46.7106970
  45.9326196  41.9997751  45.2190182  45.6395402  42.2890007  44.2097843
  46.2711024  40.9636678  45.2156479  45.0777929  42.1000280  45.8878380
  48.2685620  42.7218490  44.7899685  48.5228737  43.5464181  43.9091504
  49.0280684  41.6227932  44.9753960  48.8819070  41.0726427  45.8097045
  50.1067598  41.2391186  44.0756763  49.9510969  41.8128790  43.1620750
  51.5322699  41.5039874  44.5850261  52.2508203  41.1430383  43.8491584
  51.7362213  43.0077112  44.8030250  51.0182804  43.3693167  45.5391649
  52.7485803  43.1890129  45.1640764  51.5870150  43.5354602  43.8610489
  51.8039008  40.8820286  45.8338435  52.7041766  41.0809691  46.1012877
  49.9781321  39.7733984  43.7097346  49.4562677  38.9681846  44.4823724
  50.4280718  39.3839468  42.4957553  50.7137113  40.0974690  41.8404726
  50.4399619  37.9958055  42.0539370  50.3325660  37.3115259  42.8955585
  49.3889442  37.6575890  40.9805087  49.4370673  36.5973728  40.7320611
  47.9895212  37.9910083  41.5451289  47.9404772  39.0512254  41.7933933
  47.2307618  37.7578215  40.7981291  47.8088985  37.3994772  42.4426619
  49.6442813  38.3360177  39.6123561  49.4669782  39.4041236  39.7381105
  50.6901634  38.1697621  39.3543071  48.7477053  37.7974411  38.4870950
  47.7016108  37.9637700  38.7442349  48.9796742  38.3164741  37.5570980
  48.9247946  36.7294074  38.3604331  51.8327761  37.6469341  41.5578701
  52.6015695  38.5215322  41.1586500  52.2110628  36.3521546  41.5818360
  51.5507558  35.6575496  41.9006117  53.5400431  35.9055266  41.1639797
  54.1788214  36.7874563  41.1164237  54.1487440  34.9149682  42.1538742
  55.1179626  34.5817403  41.7828286  54.3293819  35.5928598  43.5177708
  53.3604592  35.9259663  43.8896962  54.7639524  34.8834095  44.2219923
  54.9922911  36.4516533  43.4122929  53.3040627  33.7916361  42.3737888
  53.7213257  33.1951861  42.9996796  53.5352085  35.2096036  39.8180285
  54.5858962  35.0188934  39.2053792  52.3566486  34.8172337  39.3053509
  51.5027632  35.0674893  39.7832120  52.2588035  34.0413265  38.0817336
  52.5002277  34.6679382  37.2231468  52.9474226  33.1972636  38.1199554
  50.8628648  33.5243689  37.9300635  49.9395955  34.0032105  38.5910738
  50.6592362  32.5085121  37.0780427  51.4186834  32.1906418  36.4929805
  49.3645189  31.8892928  36.9158960  48.8580263  31.8706639  37.8808920
  48.4745691  32.6501023  35.9052030  47.4400539  32.3072260  35.9229001
  48.5115669  33.7057406  36.1741993  48.9297946  32.5548318  34.4943645
  48.2561176  31.7123365  33.6398401  48.9153144  31.7943365  32.4936160
  48.5529367  31.1982024  31.6561165  49.9590790  32.6417187  32.5896991
  50.6194511  32.8850149  31.8652575  49.9785534  33.1338177  33.8686695
  50.7501536  33.8431330  34.1680125  49.5496279  30.4511816  36.4872005
  50.6538931  30.0425515  36.1257829  48.4819389  29.6397071  36.5767065
  47.6501673  30.0131132  37.0112444  48.4700619  28.2545214  36.1456768
  49.3312402  28.0443388  35.5114099  48.4476181  27.2387111  37.2937216
  48.3030500  26.2352723  36.8933345  49.7894351  27.3016320  38.0490460
  49.9344998  28.3047155  38.4501454  49.7805220  26.5815002  38.8672338
  50.6036946  27.0632483  37.3647535  47.2588897  27.4730741  38.2552708
  46.3224249  27.3832504  37.7047553  47.2838090  26.7301353  39.0524663
  47.3315653  28.4712262  38.6871405  47.2826753  28.0023742  35.2440524
  46.1691957  28.4799085  35.4910309  47.4860301  27.2250012  34.1683623
  48.4356142  26.9454843  33.9677142  46.4518551  26.8630657  33.2264054
  45.5770535  27.4988243  33.3629058  46.9782628  27.0496866  31.7840183
  47.8318506  26.3865038  31.6437482  46.1839491  26.7700154  31.0919563
  47.4119880  28.5175330  31.5089140  46.5477160  29.1528679  31.7025227
  48.2038430  28.7558746  32.2190253  47.9126417  28.7599968  30.0899639
  47.8666218  27.8052328  29.2776438  48.3435812  29.9122472  29.8121314
  45.9908157  25.4491179  33.5593966  46.7885370  24.5142648  33.6436012
  44.6882031  25.2749445  33.8661653  44.0647083  26.0604242  33.7462685
  44.1511911  24.0490518  34.4345464  44.9192653  23.5865835  35.0544531
  42.8868923  24.2931771  35.3086954  42.3670822  25.0940841  34.7829154
  42.2722920  23.3930453  35.2973241  43.1462927  24.7207418  36.7703619
  43.8726658  24.0225025  37.1862281  43.6736875  26.1550529  36.9170292
  42.9475957  26.8539466  36.5017738  43.8304175  26.3789744  37.9722049
  44.6180303  26.2520407  36.3813890  41.8553953  24.5487527  37.5851611
  41.5456851  23.5039834  37.5599425  42.0339744  24.8494195  38.6175420
  41.0692731  25.1706472  37.1569578  43.8352462  23.0181724  33.3471848
  43.6226430  23.3894645  32.1954856  43.8092967  21.7127558  33.6229860
  44.0808287  21.1314446  34.9333969  43.1931186  21.2240816  35.5590880
  44.9099364  21.6644887  35.3987392  44.4253084  19.6847114  34.6194736
  44.2089713  19.0373820  35.4693335  45.4751382  19.5835201  34.3443026
  43.5163644  19.3682283  33.4306863  42.5222103  19.0458989  33.7402996
  43.9681179  18.5995384  32.8036821  43.4178991  20.6928368  32.6496627
  44.1557496  20.7351385  31.8484851  42.0218614  20.8425156  32.0612708
  41.1252462  21.3295267  32.7440946  41.7932086  20.3601097  30.8188030
  42.5932910  20.0389986  30.2926326  40.4962598  20.3831413  30.1575902
  39.9373765  21.2688276  30.4597630  40.6881577  20.4195468  28.6254506
  41.2642229  19.5406962  28.3358479  39.7033315  20.3773025  28.1602272
  41.4260199  21.6976785  28.1560811  40.8283039  22.5681239  28.4265642
  42.4017381  21.7637778  28.6374406  41.6277389  21.6955323  26.6427910
  41.9864717  20.6640193  26.0658640  41.4169696  22.8502869  25.9768780
  41.5419007  22.8820388  24.9751368  41.1352533  23.6775135  26.4832705
  39.5909473  19.2327240  30.5904162  39.0983049  18.4364253  29.7828954
  39.3465960  19.1506570  31.9087483  39.7610030  19.8719687  32.4815271
  38.6099563  18.1048187  32.5590938  37.8865733  17.6580777  31.8770096
  39.6071188  17.0119189  33.0066638  40.2051521  16.6366999  32.1762024
  40.2613427  17.4782851  33.7432735  38.8608667  15.8622758  33.6508312
  38.2938325  16.0862595  34.7574827  38.7893889  14.7805852  33.0219518
  37.8344832  18.7347641  33.7202640  38.4025532  19.3900497  34.5897445
  36.4951251  18.5484787  33.7619836  36.0704862  18.0549881  32.9898124
  35.6248837  19.1167145  34.7792097  35.8392077  20.1783350  34.9021990
  34.1452465  18.9566290  34.3628154  33.9704128  17.9017406  34.1512904
  33.5262829  19.2651697  35.2053038  33.7791042  19.7988487  33.1190727
  33.9791855  20.8443136  33.3537453  34.3950280  19.4924921  32.2735654
  32.3128338  19.6321394  32.7632296  31.4513676  20.1287548  33.5336450
  32.0219648  18.9863436  31.7269241  35.8421855  18.5883235  36.1943323
  35.7228692  19.3395872  37.1739503  36.1562923  17.2910426  36.3708685
  36.1233398  16.6814552  35.5662465  36.4602611  16.7084857  37.6617781
  35.6836184  17.0137164  38.3630337  36.4681386  15.1675529  37.5746112
  37.2468717  14.8462234  36.8829305  36.6638907  14.7482903  38.5615257
  35.4992255  14.8183508  37.2177296  37.7857798  17.2321446  38.2039057
  37.8928640  17.6122548  39.3740781  38.8180523  17.3272706  37.3400224
  38.7296388  16.8877242  36.4349912  40.1019341  17.9041216  37.7035556
  40.4476092  17.4551993  38.6347252  41.1654911  17.6548138  36.6105007
  40.8204396  18.1193557  35.6867910  42.0965504  18.1248373  36.9272127
  41.4065023  16.1420784  36.3692410  41.7065468  15.7178272  37.3274086
  40.4715336  15.6840711  36.0464950  42.4862267  15.8269344  35.3365119
  42.3397633  14.9642499  34.4596437  43.6439457  16.5020901  35.4152046
  44.3789395  16.3176847  34.7474620  43.7746585  17.1913576  36.1417898
  40.0341492  19.3851456  38.0816986  40.6390524  19.8106502  39.0711706
  39.2529383  20.2050305  37.3441428  38.8865446  19.8476210  36.4734457
  38.9876559  21.6051224  37.6870901  39.9211802  22.1427429  37.8532101
  38.1787882  22.3118615  36.5908337  37.3043959  21.7008398  36.3668005
  37.7220456  23.7274348  37.0230240  38.5959682  24.3392253  37.2467924
  37.1534195  24.1886368  36.2155230  37.0948823  23.6520027  37.9113231
  38.9952638  22.4105922  35.2795840  39.7254133  23.2087997  35.4131776
  39.5150741  21.4612420  35.1506232  38.1419922  22.7003607  34.0344724
  37.6222035  23.6498483  34.1625071  38.7859260  22.7547321  33.1566955
  37.4118623  21.9022911  33.8999541  38.2896368  21.7558595  39.0390329
  38.6731014  22.5879377  39.8671705  37.2676871  20.9191801  39.3217580
  36.9674700  20.2907520  38.5902888  36.5402924  20.9081984  40.5826618
  36.1473842  21.9140948  40.7306307  35.3570318  19.9250319  40.4974164
  35.7348874  18.9121209  40.3583600  34.7772794  19.9726416  41.4192193
  34.7206572  20.1938153  39.6542781  37.3965523  20.5526698  41.7930503
  37.2843812  21.1679126  42.8620063  38.2977654  19.5624602  41.6492656
  38.2466647  19.0132547  40.8031797  39.2663819  19.1827365  42.6569312
  38.7081241  18.9455560  43.5625762  40.0250343  17.9181148  42.1995601
  40.5961203  18.1423132  41.2986184  40.7042200  17.5958677  42.9888407
  39.3110938  17.1221373  41.9878808  40.2439712  20.3017408  43.0072076
  40.5085912  20.5557936  44.1833791  40.7686309  21.0287273  41.9942852
  40.5931470  20.7275430  41.0463438  41.6224127  22.1856168  42.2025143
  42.4544867  21.9226430  42.8556581  42.1934719  22.6770718  40.8448703
  42.5178058  21.8007107  40.2837126  41.4270792  23.2069218  40.2791836
  43.3943002  23.6087672  40.9298059  44.7142191  23.2606805  40.8792226
  44.9214187  22.2005953  40.7329780  45.5263472  24.3665733  41.0296824
  46.5359065  24.3760328  41.0579700  44.7129491  25.4661121  41.1747611
  45.0418251  26.8049609  41.3861219  46.0961629  27.0811639  41.3996294
  43.9903195  27.7149061  41.5686721  44.2073250  28.7620047  41.7798428
  42.6605534  27.3036874  41.4847770  41.8438693  28.0159877  41.6020588
  42.3330997  25.9576962  41.2463430  41.2844741  25.6658742  41.1886808
  43.3840661  25.0476640  41.1154619  40.9061393  23.3348531  42.9036829
  41.4219421  23.9201854  43.8518125  39.6684550  23.6418328  42.4587436
  39.3521801  23.1398689  41.6413687  38.8130808  24.6898666  42.9995688
  39.3423611  25.6427348  43.0015329  37.5386186  24.8321155  42.1246212
  37.9295278  25.1240598  41.1499122  37.0666978  23.8525882  42.0476978
  36.4926689  25.8731983  42.5938106  36.9975801  26.6441313  43.1758997
  35.7937733  26.5180351  41.3882417  35.2882161  25.7477284  40.8058858
  35.0625566  27.2465941  41.7384200  36.5337096  27.0181910  40.7633907
  35.4263912  25.2920306  43.5440196  35.9114301  24.8941006  44.4353604
  34.7278849  26.0779420  43.8313060  34.8850370  24.4926380  43.0380492
  38.4429855  24.4893126  44.4587565  38.3824406  25.4423980  45.2397696
  38.1915838  23.2336606  44.8762431  38.1940285  22.5104122  44.1712572
  37.8535356  22.8655014  46.2380167  36.9394162  23.4010040  46.4943796
  37.5710620  21.3499209  46.3002939  38.4796421  20.8000752  46.0548311
  37.2448819  21.0815875  47.3051341  36.7888272  21.0959023  45.5849741
  38.9120997  23.2338219  47.2697700  38.5834292  23.6153616  48.3954702
  40.1990664  23.1107167  46.8997661  40.3921757  22.6783894  46.0076331
  41.3212648  23.4751058  47.7451214  41.0408406  23.4678115  48.7984059
  42.4592546  22.4823222  47.5371096  42.6657272  22.4263876  46.4683068
  43.7432273  22.8912866  48.2877489  43.5376437  22.9469846  49.3567363
  44.5223006  22.1508898  48.1062058  44.0783438  23.8653928  47.9314968
  41.9846225  21.1004929  48.0348116  41.1072031  20.7909333  47.4669998
  42.7821780  20.3704403  47.8968700  41.7288295  21.1628957  49.0925340
  41.7820982  24.9072305  47.5147731  41.9558559  25.6708731  48.4668525
  41.9785848  25.3299849  46.2498740  41.6313178  24.7748431  45.4808990
  42.6892716  26.5603514  45.9455195  43.2586665  26.8874716  46.8155086
  43.6662640  26.3306505  44.7752237  43.0934855  26.0423392  43.8938040
  44.2282409  27.2397870  44.5613245  44.6474477  25.2192359  45.1009952
  45.5429024  25.3614518  45.9436294  44.5186373  24.0682510  44.4122553
  45.1491473  23.3006866  44.5950170  43.7921614  23.9783219  43.7163773
  41.7903490  27.7254843  45.5558227  42.2604533  28.8475229  45.3782915
  40.4657405  27.5314536  45.4418648  40.0926520  26.5950587  45.5056540
  39.5368163  28.6312024  45.2275556  38.6782014  28.4327724  45.8690422
  40.0467871  29.5308809  45.5719504  39.0531717  28.8511287  43.8124824
  39.3885067  28.0983841  42.8979776  38.2064293  29.8678686  43.6217673
  37.7461016  30.7425499  44.7039391  38.5619404  31.4049590  44.9932857
  37.4584200  30.1274209  45.5565555  36.5620279  31.4976931  44.1050957
  36.4353865  32.4734338  44.5741277  35.6385499  30.9265924  44.2006666
  36.9703193  31.6320466  42.6408535  37.6504053  32.4448267  42.3859605
  36.0521387  31.7322470  42.0620582  37.6359815  30.2793626  42.3385690
  36.8309156  29.5699365  42.1470443  38.5551924  30.3385275  41.1316552
  39.7033145  30.7618958  41.2593890  38.0458522  29.9417684  39.9493220
  37.0479681  29.7905318  39.9111873  38.8263135  29.7160343  38.7378096
  39.8670455  30.0077596  38.8787790  38.7819500  28.2402722  38.3434479
  37.7348836  27.9409971  38.2966976  39.4572199  27.9587549  36.9875056
  40.5045047  28.2573649  37.0336311  39.3930706  26.8940181  36.7631823
  38.9524916  28.5254380  36.2050600  39.4738073  27.4044381  39.4366981
  38.9556253  27.5456236  40.3852001  39.4455191  26.3502019  39.1612252
  40.5105756  27.7251629  39.5384228  38.2544133  30.5517788  37.6057485
  37.0405162  30.5524709  37.3766473  39.0973626  31.3064297  36.8694133
  40.0568394  31.3777615  37.1766839  38.7019952  32.0289834  35.6738779
  37.7933959  32.6016628  35.8598475  39.8210223  33.0044978  35.2408006
  40.7349588  32.4447100  35.0421605  39.5147053  33.5315031  34.3371770
  40.0032777  33.7258538  36.0373730  38.4205118  31.0545282  34.5354701
  39.2157436  30.1423756  34.2995927  37.2962285  31.2000709  33.8049851
  36.6334977  31.9213885  34.0511317  36.9752917  30.3189860  32.6924700
  37.8850007  29.8829961  32.2796243  35.9874398  29.1836020  33.0129428
  35.7317525  28.6601895  32.0916596  36.6235794  28.1948428  34.0042105
  36.8791331  28.7174644  34.9259804  35.9165701  27.3950635  34.2246452
  37.5265688  27.7701807  33.5656059  34.6440857  29.7120622  33.5518069
  34.1827719  30.3601401  32.8066314  33.9813155  28.8728687  33.7629696
  34.8165319  30.2775452  34.4675536  36.4025556  31.1326353  31.5558148
  35.8452707  32.2171489  31.7450551  36.5279815  30.6266670  30.3169636
  37.1943753  29.8830917  30.1649297  35.7863361  31.1219719  29.1842415
  35.3667924  32.1028612  29.4077106  36.6910890  31.2443365  27.9387303
  37.1114177  30.2681195  27.6970192  36.1022312  31.6047418  27.0952525
  37.4991224  31.9466376  28.1435577  34.6220128  30.1827513  28.9077027
  34.7003654  28.9839289  29.1764497  33.5108084  30.7140432  28.3702656
  33.4956531  31.7176450  28.2577799  32.3483007  29.9578687  27.9494223
  32.5889067  28.9052480  27.8004337  31.1687833  30.0579361  28.9276406
  30.2967718  29.5650124  28.4978483  31.5433421  29.3723842  30.2552665
  32.4150534  29.8650887  30.6859203  30.7064589  29.4430912  30.9500524
  31.7739324  28.3231814  30.0705960  30.7298436  31.5215021  29.1516753
  30.4232352  31.9589127  28.2015357  29.8932452  31.5476400  29.8499012
  31.5628006  32.0924372  29.5619394  31.8866244  30.4827258  26.6046884
  32.3078296  31.5618995  26.1794448  31.0137693  29.7236716  25.9118633
  31.0178958  28.7352924  26.1196826  30.1044820  30.2075063  24.8931089
  30.5728453  30.9944619  24.3019779  29.7371825  29.0242199  23.9457930
  30.7088545  28.6554648  23.6172013  29.2331069  28.2513608  24.5260488
  28.8885859  29.3796235  22.7259040  28.1079203  30.3635750  22.7594384
  28.9772038  28.5897597  21.7446620  28.8955611  30.7550715  25.6460494
  28.2162207  30.0227876  26.3725947  28.6321038  32.0695833  25.5563505
  29.2384733  32.6536389  24.9984128  27.5512120  32.6963948  26.2746849
  27.1980805  32.0015814  27.0366768  28.0224837  33.9918407  26.9688288
  28.3706024  34.7010714  26.2178927  27.1929852  34.4294806  27.5242600
  28.8371628  33.7611530  27.6552546  26.3801196  32.9952210  25.3472758
  25.4525534  33.7093439  25.7348959  26.3408192  32.4347176  24.1120521
  27.1474037  31.9110724  23.8033186  25.3011695  32.7580889  23.1258267
  25.2090117  33.8434726  23.0864792  25.5813555  32.2281460  21.6828761
  25.0178467  32.8697689  21.0054713  26.6485614  32.3642164  21.5077868
  25.2309909  30.8644066  21.4477729  25.4388596  30.6326100  20.5396646
  23.8746550  32.4571714  23.5649406  22.9263122  33.1870608  23.2568878
  23.6869749  31.4103563  24.3806442  24.4970935  30.8540374  24.6137032
  22.4018661  31.0244389  24.9398848  21.6077446  31.3165841  24.2527740
  22.3185799  29.4870155  25.1717506  21.3621798  29.2490169  25.6373199
  22.3908095  28.9781155  24.2105516  23.3860165  29.0516916  26.0239743
  23.3220223  28.1032384  26.1579189  22.1172598  31.6951904  26.2852118
  21.0478010  31.5150306  26.8602294  23.0201943  32.5293814  26.8458450
  23.8767375  32.7297728  26.3495825  22.8622447  33.0610417  28.1984334
  22.4064336  32.3021104  28.8343254  24.2197136  33.4612943  28.8056384
  24.7913319  34.0034203  28.0523448  24.0983839  34.0877101  29.6893705
  25.0706193  32.2757167  29.2268691  25.0315788  30.9644343  28.8310594
  24.2994198  30.7018981  28.0674380  25.9679682  30.2370520  29.5166832
  26.1431557  29.2487820  29.4038502  26.6340172  31.0665491  30.3680675
  27.6592827  30.8260084  31.2571838  28.0314378  29.8044964  31.3353661
  28.1589752  31.9002520  32.0024236  28.9717615  31.7399842  32.7107967
  27.6303467  33.1904680  31.8549320  28.0122707  34.0299323  32.4359080
  26.5922180  33.4356359  30.9524319  26.2068124  34.4506190  30.8556202
  26.1010776  32.3662116  30.2142376  21.8791893  34.2120915  28.2892439
  21.4222002  34.5960440  29.3650889  21.4649407  34.7399935  27.1332462
  21.9466718  34.4273561  26.3024079  20.4479577  35.7632296  26.9938533
  20.6091603  36.5569069  27.7233664  20.5176057  36.3742098  25.5757485
  20.2627698  35.5822862  24.8714652  19.7636653  37.1598704  25.5266427
  21.9009992  36.9637100  25.2101573  22.6396737  36.1937716  25.4329932
  21.8879181  37.1542041  24.1370111  22.3506446  38.4943267  26.0836502
  21.4157598  39.5358010  24.9323935  20.3650823  39.2462634  24.9509343
  21.5094768  40.5805633  25.2286864  21.8096085  39.4078913  23.9241160
  19.0359388  35.2430555  27.2878659  18.0874614  36.0183504  27.3883523
  18.8700829  33.9084139  27.4423572  19.6800435  33.3215393  27.3022093
  17.5970341  33.2674807  27.7524804  16.8130026  34.0078664  27.5936637
  17.3214152  32.0584330  26.8457728  16.2862950  31.7415208  26.9730249
  17.5628729  32.4403311  25.3773808  18.5979795  32.7569309  25.2492462
  17.3655697  31.5783542  24.7400688  16.8966234  33.2570452  25.0995495
  18.1808021  30.9546087  27.1025667  17.9615744  30.2333438  26.5081623
  17.5111535  32.7980113  29.2032075  16.4687155  32.3229814  29.6523262
  18.6056707  32.9159080  29.9903196  19.4385693  33.3249113  29.5914516
  18.6776907  32.3853275  31.3422802  18.2430615  31.3860341  31.3669662
  20.1525894  32.2974571  31.8243204  20.6856145  31.6932680  31.0901958
  20.5831018  33.2984596  31.8517637  20.2769058  31.6592167  33.1863030
  19.9998357  30.3011455  33.4155971  19.6499007  29.6827934  32.5889862
  20.1687313  29.7382668  34.6910792  19.8954088  28.6988552  34.8727943
  20.5917199  30.5447520  35.7504782  20.9263456  29.9872982  36.9945264
  20.8301919  29.0323612  37.0157271  20.7833973  31.9088113  35.5490630
  21.0386717  32.5483541  36.3940011  20.6500586  32.4591264  34.2713760
  20.8373967  33.5211842  34.1131429  17.8265857  33.1592599  32.3586589
  17.9505944  34.3739184  32.5028177  16.9603577  32.4486279  33.1186887
  16.8403228  31.4628426  32.9345196  16.1384750  33.0636957  34.1554652
  16.4136676  34.1173373  34.2024493  14.6485635  32.9624848  33.8461093
  14.0783242  33.4539449  34.6343950  14.3593536  33.6470485  32.5031345
  14.9289241  33.1558052  31.7142307  13.2947769  33.5757648  32.2802126
  14.6486864  34.6964133  32.5598841  14.2141998  31.6170601  33.7099491
  13.2740169  31.6023749  33.5164532  16.3710974  32.4906941  35.5457447
  15.8743470  33.0443246  36.5310778  17.1497545  31.4027188  35.7024760
  17.6263432  31.0158280  34.9004298  17.3343551  30.7547765  36.9947974
  18.3007991  31.0516604  37.4021610  16.5413520  31.0805137  37.6679547
  17.2921764  29.2583696  36.8780361  16.9852026  28.7109483  35.8147102
  17.6040881  28.5374982  37.9744437  17.8076921  29.0236146  38.8360327
  17.6610359  27.0817702  37.9726831  17.5884794  26.7303136  39.0019124
  16.8154855  26.7020122  37.3991610  18.9309240  26.5646046  37.3693583
  19.8652560  27.3054431  37.0892154  19.0385693  25.2447919  37.1639784
  18.3392980  24.6039738  37.5110680  20.1909682  24.6976332  36.4759617
  21.0551403  25.3442560  36.6282277  20.5408970  23.2954463  36.9589706
  19.6883110  22.6409692  36.7777084  21.7782951  22.7449761  36.2183024
  22.6314618  23.3987209  36.3994802  22.0049211  21.7431700  36.5831663
  21.5735138  22.7037804  35.1485038  20.8105342  23.3607140  38.4744989
  19.9189861  23.7213950  38.9874836  21.0633917  22.3662631  38.8422353
  21.6402549  24.0407283  38.6674888  19.8695992  24.6968142  34.9957488
  18.9226503  24.0410781  34.5593637  20.6237167  25.4682703  34.1801702
  21.2968548  26.0976890  34.5934698  20.4723301  25.4734747  32.7327850
  19.4351355  25.6998509  32.4856406  21.3872478  26.5300061  32.0519002
  21.1778471  27.4773037  32.5487681  22.4119690  26.2265815  32.2663294
  21.2082369  26.6991203  30.5208164  21.2635813  25.7018865  30.0842816
  20.2108685  27.1094871  30.3628369  22.4331096  27.7752920  29.7117088
  21.3441059  29.2196179  29.7168858  21.0762535  29.4696687  30.7434474
  21.8586961  30.0649367  29.2600120  20.4402163  28.9958131  29.1503207
  20.7617446  24.1133255  32.1123703  21.7310520  23.4353817  32.4643337
  19.9348023  23.7183652  31.1298063  19.1417894  24.3120901  30.9330307
  20.1038208  22.5147472  30.3418004  20.9747005  21.9711211  30.7080496
  18.8953041  21.5757873  30.3661218  18.6816845  21.3324172  31.4069090
  17.6463365  22.1993226  29.7187689  17.8590567  22.4425501  28.6777645
  16.8202824  21.4896156  29.7640437  17.3736910  23.1081215  30.2552850
  19.1497801  20.3498093  29.6949193  18.3676499  19.7946073  29.7352104
  20.3362957  22.9583095  28.9291384  19.8586515  24.0199435  28.5138972
  21.0871312  22.1659772  28.1598961  21.6707130  21.4937732  28.6370474
  21.2291070  22.3023680  26.7201672  21.9663552  21.5794176  26.3710154
  19.9026724  22.0580781  25.9664784  19.1363976  22.7242785  26.3628357
  20.0489740  22.2636265  24.9060795  19.4875640  20.7013411  26.1354596
  18.6634010  20.5578613  25.6645363  21.8524587  23.5942152  26.2648766
  21.4071404  24.2263777  25.3018049  22.9396622  24.0123480  26.9358301
  23.2111627  23.5046227  27.7656505  23.6975198  25.1913749  26.5739939
  23.0422757  26.0621559  26.5517538  24.8263375  25.4450206  27.6142416
  24.4279898  25.3201989  28.6211368  25.6359213  24.7330931  27.4535141
  25.6036723  27.0956261  27.5153774  24.2699258  25.0678292  25.1694207
  24.7982283  24.0143192  24.8028226  24.1701017  26.1249555  24.3327158
  23.5152993  26.8628960  24.5489955  24.8580463  26.1677281  23.0545191
  24.6932195  25.2275352  22.5282410  24.3885990  27.3159920  22.1617195
  24.5172834  28.2518250  22.7055542  25.1908372  27.3718258  20.8467071
  25.0622634  26.4364492  20.3020601  24.8310143  28.1997652  20.2358516
  26.2473406  27.5188004  21.0709854  22.8906932  27.1104773  21.8465499
  22.3207974  27.1049789  22.7756842  22.5382639  27.9217259  21.2095500
  22.7543536  26.1594734  21.3316672  26.3494294  26.1640477  23.3371796
  26.8338674  26.8688908  24.2260181  27.0916217  25.2810911  22.6605738
  26.6962049  24.8160883  21.8558893  28.4625387  24.9847421  23.0196934
  28.8245337  25.7754043  23.6768936  28.6267532  23.6169474  23.7487458
  28.1985348  22.8510406  23.1021277  29.6955556  23.4374603  23.8651319
  27.9928218  23.5675456  25.0304948  28.1316265  22.7025161  25.4229957
  29.2752744  24.9113429  21.7472677  29.7710244  23.8462250  21.3858262
  29.4063722  26.0319663  21.0122102  29.0840106  26.9023406  21.4104952
  30.0091328  26.0610336  19.6983226  30.2428633  25.0519015  19.3590268
  29.0082946  26.6934961  18.7106035  28.6941147  27.6483974  19.1319748
  29.5396921  26.8670993  17.7748798  27.7647458  25.8153181  18.4413533
  28.1023946  24.8873358  17.9798957  27.3092555  25.5955908  19.4069348
  26.7348332  26.4902968  17.5339340  26.9153138  27.6768470  17.1610919
  25.7447277  25.7867776  17.2017807  31.2748424  26.8967320  19.6408644
  32.2618335  26.4954490  19.0199187  31.3137383  28.0767600  20.2829042
  30.5185453  28.4054611  20.8117926  32.4882688  28.9174654  20.2173033
  33.3866530  28.3159240  20.0789090  32.3421945  29.8760780  19.0064969
  32.1627193  29.2450923  18.1360113  31.4590544  30.4843052  19.2020047
  33.5537881  30.7993447  18.7329802  33.7815052  31.3873108  19.6221043
  34.4006185  30.1546862  18.4976169  33.3259466  31.7549422  17.5600426
  33.4668244  32.9778567  17.6570710  32.9933814  31.1926578  16.3786947
  32.8318071  31.7783131  15.5718471  32.9076442  30.1888579  16.3070277
  32.6591765  29.7222475  21.4935808  31.7557881  30.4267107  21.9197770
  33.8350304  29.6752156  22.1546894  34.5604711  29.0444438  21.8449122
  34.1027435  30.5213395  23.3074656  33.3669633  30.3340162  24.0895377
  35.5106250  30.2121032  23.8689847  36.1951596  30.3992481  23.0416465
  35.6953092  30.9352533  24.6633686  35.7359013  28.7897036  24.4085463
  35.4470571  28.0620396  23.6501434  37.2173542  28.6056880  24.7545125
  37.5068395  29.3327515  25.5132455  37.3791812  27.5979820  25.1371890
  37.8213011  28.7552548  23.8595386  34.8897207  28.5213864  25.6551197
  33.8337554  28.6331497  25.4090594  35.0744466  27.5070679  26.0088648
  35.1574043  29.2325595  26.4365782  34.0764088  32.0206034  23.0024144
  34.7404321  32.4667703  22.0618119  33.3781562  32.8375126  23.8160641
  32.8680428  32.4515076  24.5976546  33.2490772  34.2506236  23.5446326
  34.1435703  34.6301523  23.0507305  32.0303185  34.4712656  22.6038015
  32.0621964  35.5064906  22.2641073  32.2230044  33.8069068  21.7614242
  30.6503621  34.1687324  23.1852240  30.5460890  33.6589626  24.3331316
  29.6634353  34.4963712  22.4784071  33.1460004  35.1155961  24.7972114
  33.1582757  36.3475738  24.7175473  33.1084372  34.5152361  26.0023309
  33.2588154  33.5201469  26.0876719  32.8178409  35.2700951  27.2013053
  33.0737441  36.3224465  27.0781417  31.3053880  35.1590640  27.4615540
  30.8172949  35.5137091  26.5537593  31.0046058  34.1297370  27.6567871
  30.7671566  35.9818047  28.5852492  31.0217772  37.3362837  28.6126186
  30.3690570  37.7822294  29.6710229  30.4367941  38.8495531  29.8815716
  29.7157500  36.7907789  30.3167170  29.1466794  36.8602696  31.1482394
  29.9648793  35.6273627  29.6259585  29.5336067  34.6868979  29.9689326
  33.6071015  34.7543072  28.3881775  33.6211632  33.5555973  28.6626405
  34.3041816  35.6414284  29.1367877  34.2971191  36.6137043  28.8634215
  35.0678690  35.2608398  30.3232529  35.3196802  34.2024598  30.2560063
  35.9840861  35.8503396  30.3569503  34.2864905  35.4985648  31.5854444
  33.7228862  36.5713758  31.7757409  34.2852314  34.5147722  32.5049043
  34.8827759  33.7219578  32.3192019  33.4940749  34.5092959  33.7189349
  33.3684964  35.5184531  34.1112752  32.1107455  33.8785885  33.5393545
  31.6499018  33.7565657  34.5195753  31.2160519  34.7660121  32.6600060
  31.6760462  34.8881211  31.6793962  30.2383554  34.2977241  32.5463560
  31.0982083  35.7425762  33.1296197  32.2436633  32.4596003  32.9487351
  32.8333719  31.8385922  33.6230456  31.2528092  32.0222759  32.8260353
  32.7388577  32.5139360  31.9792347  34.2349445  33.7238554  34.7870600
  35.3175002  33.1739131  34.5260892  33.7153936  33.6478619  36.0239536
  32.7879851  34.0185547  36.1742861  34.4188964  33.0713419  37.1571860
  35.3946086  32.6864020  36.8606963  34.6270770  34.1954709  38.2031304
  35.1397122  34.9764322  37.6415221  33.6398168  34.5500714  38.4992313
  35.4447559  33.8467408  39.4596740  35.0603824  32.9180735  39.8814974
  36.9283770  33.6762716  39.1175574  37.3135998  34.6047439  38.6960821
  37.4844499  33.4302764  40.0221955  37.0441143  32.8723405  38.3906461
  35.2689152  34.9342098  40.5332703  34.2161151  35.0101925  40.8051860
  35.8534800  34.6726277  41.4152907  35.6123698  35.8914989  40.1411789
  33.6419507  31.9180805  37.7982207  32.5054103  32.0922611  38.2480507
  34.2341187  30.7046302  37.8812238  35.1271666  30.5910225  37.4233396
  33.6901978  29.5748321  38.6256023  32.6342613  29.4743562  38.3746005
  34.4068011  28.2271656  38.3125552  35.4480497  28.4424983  38.5524144
  34.0206529  27.4825199  39.0086101  34.3135479  27.6827644  36.8751860
  34.7071875  28.4273451  36.1832696  35.1296939  26.3837801  36.7493668
  34.7363223  25.6385162  37.4406983  35.0577497  26.0062240  35.7293785
  36.1737766  26.5854315  36.9888006  32.8675045  27.4383500  36.4383689
  32.3114218  28.3748799  36.4805955  32.8554788  27.0549399  35.4180977
  32.4041114  26.7108833  37.1048207  33.8817181  29.7979228  40.1196209
  35.0117920  29.9868907  40.5662853  32.8005174  29.7716508  40.9300800
  31.8817616  29.6720922  40.5225568  32.8989740  29.9851298  42.3686299
  33.9372413  30.0689566  42.6896802  32.1429874  31.2298634  42.8308339
  32.2306730  31.3298080  43.9126941  32.7467944  32.4768120  42.1483779
  32.6590515  32.3778003  41.0664358  32.2096359  33.3668797  42.4760067
  33.7984540  32.5670671  42.4203479  30.6347242  31.1112244  42.5461656
  30.2316716  30.2470036  43.0741552  30.1279043  32.0138023  42.8876128
  30.4751724  30.9887435  41.4748848  32.4428045  28.7798062  43.1742586
  32.4838723  28.7885682  44.4089005  32.0329158  27.6809073  42.5151491
  32.0295344  27.6429997  41.5058667  31.5820719  26.5141100  43.2483597
  32.4398541  26.0937366  43.7733313  30.8364012  26.8393015  43.9738424
  30.9807953  25.4569112  42.3710626  30.8457444  25.6264093  41.1612099
  30.5891524  24.3306647  42.9875005  30.7942934  24.2392734  43.9722158
  29.9683505  23.2171916  42.3119210  29.2538543  23.6213082  41.5947849
  30.9640726  22.2771360  41.5510045  30.3574260  21.5596791  40.9984336
  31.5377014  22.8833149  40.8498646  31.9083216  21.5377715  42.4652211
  31.5933437  20.2640931  42.9729192  30.6679686  19.7813620  42.6586722
  32.4522051  19.6156259  43.8721146  32.1862252  18.6402264  44.2794869
  33.6476389  20.2263582  44.2494328  34.5560253  19.6318776  45.1398686
  34.2656257  18.7723850  45.4537799  33.9795288  21.4761734  43.7300070
  34.9188283  21.9461169  44.0215030  33.1192409  22.1264544  42.8423735
  33.3895261  23.1015936  42.4372197  29.1669980  22.4247446  43.3167169
  29.3526783  22.5428622  44.5282598  28.2484853  21.5901548  42.8137306
  28.0079718  21.6583853  41.8351616  27.5517474  20.6293088  43.6200861
  28.1079470  20.3990027  44.5287666  26.1895921  21.2521609  44.0177069
  26.3637593  22.2334492  44.4591118  25.5746499  21.3601960  43.1242449
  25.4434325  20.3984217  45.0173049  25.8655087  19.2816706  45.3348717
  24.3093791  20.8991336  45.5437911  23.7850224  20.3561131  46.2148191
  23.9884514  21.8153688  45.2651888  27.4110979  19.3537874  42.8023869
  26.7129180  19.3577944  41.7834985  28.0391454  18.2479008  43.2465863
  28.6296090  18.3597017  44.0583453  27.9679687  16.9439129  42.6247676
  27.6695151  17.0458953  41.5813961  29.3712647  16.2374361  42.6790974
  29.7296022  16.4103548  43.6938844  29.2470649  15.1669395  42.5156608
  30.3820910  16.7882530  41.6838221  29.9476102  17.2742300  40.6068937
  31.6193317  16.7076558  41.9029103  26.8976208  16.0768113  43.3194649
  26.6168051  14.9640129  42.8667529  26.2187553  16.5475728  44.4017145
  26.4378098  17.4699976  44.7499198  25.2017835  15.7592626  45.1100105
  25.3523511  14.7061606  44.8725135  25.2635757  15.9351584  46.6626316
  24.6393161  15.1580365  47.1036314  26.2994280  15.7844424  46.9665965
  24.8157054  17.2207195  47.1133720  24.8783862  17.2639580  48.0703472
  23.7832465  16.0935742  44.6877706  22.8266127  15.4061457  45.0522699
  23.6139876  17.1688350  43.8988145  24.4243262  17.7536576  43.7524141
  22.3523334  17.5935119  43.3373127  21.6500943  17.6541164  44.1687491
  22.4995827  18.9959882  42.7134673  23.1928582  18.9496777  41.8736313
  21.5273317  19.3420851  42.3626893  22.8827928  19.6889773  43.4624769
  21.7694064  16.6026514  42.3239512  22.4708940  15.7619323  41.7761598
  20.4428418  16.6883827  42.0420071  19.8980331  17.3791243  42.5381512
  19.7555943  15.8149365  41.0928419  19.8265099  14.7907096  41.4589423
  18.2625472  16.2141497  41.0272068  18.1747858  17.2343758  40.6536608
  17.7336514  15.5358716  40.3576485  17.8256477  16.1539042  42.0239960
  20.3411303  15.8567316  39.6862649  20.5078597  14.8309769  39.0175418
  20.7081028  17.0580100  39.2299850  20.3346580  17.8722360  39.6965409
  21.6121742  17.2581221  38.1241586  21.8970935  16.2940249  37.7029263
  21.0042346  18.1122614  37.0181511  20.6788735  19.0623722  37.4418597
  22.0417358  18.3737472  35.9060983  22.3672469  17.4240557  35.4815638
  21.5909361  18.9851095  35.1243590  22.9008859  18.8970338  36.3257813
  19.7774234  17.3756947  36.4459222  19.0452138  17.2186486  37.2379497
  19.3307336  17.9748421  35.6524550  20.0873900  16.4118903  36.0420624
  22.8020477  17.9728967  38.7537174  22.5929834  19.0735560  39.2766802
  24.0199136  17.4277241  38.8012937  24.2966689  16.0236083  38.5089151
  24.2700351  15.8772754  37.4291106  23.5283351  15.4085989  38.9774507
  25.6830025  15.7747958  39.1006773  26.2067864  14.9820716  38.5665070
  25.6230487  15.5209137  40.1590018  26.3662029  17.1274713  38.9020110
  26.7607522  17.2808638  37.8975706  27.1675714  17.2543527  39.6298910
  25.2395298  18.1365140  39.1808294  25.1808226  18.3028179  40.2564663
  25.4619676  19.4614679  38.4764484  25.1987670  19.5563458  37.2778869
  25.9618662  20.4997941  39.1743289  26.1622519  20.4047794  40.1596801
  26.0798694  21.8134905  38.5724793  26.2263751  21.7007015  37.4982755
  24.8080795  22.6829870  38.8133371  24.9344753  23.6395365  38.3062509
  23.9960849  22.1278623  38.3436550  24.4781705  22.9236968  40.2648232
  25.1518197  23.8981890  41.0175938  25.9570495  24.4687889  40.5548626
  24.7984336  24.1405363  42.3505466  25.3457437  24.8876475  42.9253321
  23.7501303  23.4373220  42.9412969  23.3953111  23.7123919  44.2760316
  23.9385563  24.3957804  44.6753617  23.0722425  22.4673217  42.2025211
  22.2515789  21.9133733  42.6583202  23.4439855  22.2046487  40.8782221
  22.9265349  21.4316974  40.3099868  27.3322939  22.5745864  38.9685285
  27.9476940  22.3292641  40.0052878  27.7141862  23.5514468  38.1222000
  27.2407499  23.5751170  37.2303496  28.7002597  24.5730295  38.4029203
  29.3956965  24.2000519  39.1548209  29.5056137  24.9667735  37.1334493
  28.8493787  25.2501453  36.3105549  30.1206259  25.8206521  37.4176173
  30.4504053  23.9132456  36.5914577  30.3649727  23.1869984  35.4356180
  29.4799069  23.3494180  34.8204936  31.4654222  22.3749847  35.2988381
  31.6366289  21.7292820  34.5413055  32.3020249  22.5914974  36.3673273
  33.5371964  22.0588136  36.6899501  33.9712542  21.3421130  35.9927896
  34.1534790  22.4654475  37.8802091  35.1259536  22.0592649  38.1584332
  33.5384702  23.3923605  38.7273498  34.0026587  23.6982471  39.6649329
  32.3016261  23.9561235  38.3916013  31.8638938  24.6991943  39.0581874
  31.6910853  23.5435578  37.2116304  27.9762491  25.8211154  38.8786630
  26.8249377  26.0547122  38.5095171  28.6306127  26.6664674  39.6966246
  29.5324116  26.3799097  40.0498141  28.1155539  27.9665962  40.0951877
  27.1229410  28.1334179  39.6768705  28.0664149  28.1511870  41.6144222
  29.0782363  28.1061549  42.0172744  27.4372016  29.5243882  41.9531005
  26.4251291  29.5699984  41.5509444  27.4038040  29.6524069  43.0350416
  28.0389881  30.3190560  41.5121296  27.3046325  27.0014738  42.3192181
  26.2460547  27.1179059  42.0869308  27.6667620  26.0624187  41.9007239
  27.4956814  26.9899022  43.8424673  27.1333274  27.9285162  44.2617564
  26.9355198  26.1599340  44.2731305  28.5540357  26.8730312  44.0755495
  29.0432078  29.0185542  39.5051592  30.2539517  29.0085995  39.7547851
  28.5105402  29.9458420  38.6810017  27.5073600  29.9739673  38.5672575
  29.3176037  30.8922261  37.9247771  30.3684478  30.8713724  38.2135521
  29.1972470  30.6309077  36.4301401  28.1623710  30.7815481  36.1228299
  30.1134038  31.5973892  35.6451280  31.1485708  31.4470055  35.9515831
  30.0190687  31.4012676  34.5770747  29.8194849  32.6263407  35.8524188
  29.5029844  29.1415532  36.1393138  30.4589779  28.9237931  36.6155047
  28.7160610  28.5642207  36.6246367  29.5732941  28.7631452  34.6585461
  30.3603600  29.3397759  34.1726200  29.7922403  27.6994832  34.5648189
  28.6174431  28.9802058  34.1817513  28.9217127  32.3362446  38.1888455
  27.7485636  32.7035588  38.0997867  29.9046907  33.2064777  38.5010578
  30.8310142  32.8279292  38.6378979  29.7182634  34.6392241  38.6456150
  28.7520233  34.8482630  39.1047251  30.8349139  35.2242563  39.5515907
  30.9064375  34.5639231  40.4158498  31.7583858  35.1687839  38.9752033
  30.6141214  36.6724512  40.0290510  30.4430670  37.2947346  39.1506407
  29.7271341  36.6871647  40.6624063  31.8224726  37.2218703  40.8221033
  32.0664666  36.4847672  41.5871164  32.6538143  37.3073145  40.1223393
  31.5699913  38.5858102  41.4867852  31.2297025  39.2787197  40.7172525
  30.7854083  38.4580223  42.2325727  32.7899923  39.1307239  42.1396163
  33.5169890  39.2496150  41.4486457  32.5762954  40.0236118  42.5605495
  33.1052290  38.4890102  42.8530086  29.7834727  35.3349742  37.2947066
  30.7934035  35.2315319  36.5956154  28.7101134  36.0575115  36.9032763
  27.8783958  35.9916933  37.4724979  28.6457691  36.8333123  35.6774349
  29.4848582  36.5824020  35.0285337  27.3185059  36.5132103  34.9223905
  27.0914782  35.4534950  35.0388424  26.5168162  37.1064735  35.3622000
  27.4011564  36.8333998  33.4324964  28.4613644  37.1607174  32.8997635
  26.2572192  36.7372051  32.7189144  26.2643018  36.9397642  31.7294603
  25.4005391  36.4632011  33.1783944  28.8128273  38.3246906  36.0094096
  28.8471840  38.7332219  37.1682262  28.9674588  39.1786729  34.9830659
  28.9146586  38.7747101  34.0588768  29.2549362  40.6002331  35.0991063
  29.2694996  40.8954511  36.1482647  30.6429408  40.9095822  34.4775619
  30.7014075  41.9722449  34.2421285  31.4221877  40.6536073  35.1954414
  30.8267863  40.1461630  33.2825878  31.6872505  40.3440163  32.9056854
  28.1720818  41.4442021  34.4331687  28.4424306  42.4964616  33.8533322
  26.8998703  40.9878195  34.5066036  26.7680469  40.1549567  35.0625365
  25.7400819  41.5586010  33.8300939  26.0500157  42.4173268  33.2345855
  25.0781225  40.5142798  32.8886270  24.9394251  39.6219011  33.4989732
  24.1106708  40.8564584  32.5211343  25.8796475  40.0874643  31.6704349
  27.0682235  40.5591865  31.1908242  27.5434609  41.3566683  31.7620264
  27.4184701  39.8929762  30.0404838  28.2621834  40.0400855  29.5051277
  26.4228533  38.9993379  29.7303840  26.2773634  38.1136002  28.6749280
  27.0790897  38.0763706  27.9374000  25.1193628  37.3234490  28.6156248
  24.9771972  36.6123803  27.8018250  24.1296193  37.4357977  29.5995021
  23.2242840  36.8301202  29.5592252  24.2744248  38.3313577  30.6659606
  23.4756384  38.3989613  31.4045205  25.4283459  39.1016675  30.7271812
  24.6815740  42.0811895  34.8057385  23.4797720  42.0304295  34.5210731
  25.0819484  42.5771666  35.9876049  26.0369035  42.3529249  36.2281784
  24.1886964  43.0514664  37.0524497  24.8523565  43.3859802  37.8497921
  23.1310570  44.1628887  36.7862646  22.9529270  44.6821419  37.7279365
  23.5714091  45.1646898  35.7309853  23.7492932  44.6462075  34.7888426
  22.7911980  45.9129871  35.5916262  24.4899164  45.6541791  36.0547836
  21.8481706  43.7386496  36.3528988  21.2850072  44.5050207  36.2220452
  23.6370728  41.9491021  37.9344584  23.6881224  40.7631416  37.6038806
  23.1210320  42.3056634  39.1279708  23.2726781  43.2528889  39.4439880
  22.4375334  41.3787962  40.0236078  22.9955680  40.4434296  39.9813491
  22.4022589  41.8606551  41.4712782  21.8009379  41.1774369  42.0710499
  23.8312132  41.9000547  42.0215275  24.4330584  42.5834692  41.4225062
  23.8134855  42.2435761  43.0558281  24.2653980  40.9011947  41.9783646
  21.8999032  43.1820102  41.5845588  21.8949188  43.4443728  42.5079988
  21.0253259  41.0679202  39.5650652  20.4623802  40.0334308  39.9289660
  20.4157287  41.8821993  38.6834980  20.9126934  42.6969957  38.3529947
  19.0582596  41.6613789  38.2067696  18.4371855  41.3645743  39.0519164
  18.4329034  42.9273576  37.5500136  19.1599768  43.2632265  36.8106520
  17.5331964  42.5797916  37.0422485  18.0709917  44.1089778  38.4948070
  17.5098223  44.8109774  37.8780524  17.4274252  43.7277267  39.2876322
  19.2427667  44.8485389  39.1316506  19.2216586  45.1684077  40.3329950
  20.2837947  45.1806977  38.3531827  21.0720262  45.6708746  38.7513273
  20.2745019  44.9390534  37.3725589  19.0012946  40.5297546  37.1843765
  17.9321925  40.0016840  36.8834541  20.1541170  40.1315210  36.6161060
  20.9944240  40.6611410  36.7990981  20.2376923  39.0027468  35.7172495
  19.3040953  38.8947420  35.1651346  21.3928082  39.2171249  34.7017401
  21.1617981  40.1452354  34.1789165  22.3652173  39.3059286  35.1861310
  21.5347204  38.1364145  33.6316332  20.8635481  38.0122917  32.4463285
  20.1617831  38.8074378  32.1945976  21.2419442  36.8532748  31.8023113
  20.8905943  36.5284136  30.9128631  22.1704771  36.2075736  32.5743091
  22.8528389  35.0197557  32.3770069  22.6576473  34.4786475  31.4511556
  23.7427897  34.5856270  33.3630900  24.3136925  33.6673533  33.2254552
  23.9151901  35.3222996  34.5422086  24.5720924  34.9677434  35.3364811
  23.2469238  36.5385990  34.7351382  23.4117864  37.0878757  35.6620774
  22.3766860  36.9743006  33.7405155  20.4518858  37.7000428  36.4809185
  21.2264985  37.6354210  37.4341573  19.8096350  36.5929129  36.0464690
  19.1550260  36.6730816  35.2815119  20.0232141  35.2745451  36.6404877
  19.4435495  34.5688175  36.0454777  21.0851595  35.0540287  36.5321188
  19.6368933  35.1270640  38.0907313  18.6260748  35.6553918  38.5414246
  20.4255784  34.3592181  38.8663669  21.2051228  33.8766805  38.4426131
  20.1857105  34.1663469  40.2847156  19.1409416  34.3829491  40.5075178
  20.4944885  32.6992540  40.7188592  21.5474563  32.5195679  40.5019006
  20.3317060  32.6464455  41.7953410  19.6283167  31.6199660  40.0105846
  18.6103559  31.8968000  40.2848467  19.7545661  31.7233693  38.9328703
  19.8881518  30.1717770  40.4162634  21.0480902  29.7773707  40.6970134
  18.9035762  29.3854546  40.3879622  21.0671313  35.1476898  41.0518397
  22.1802700  34.8082473  41.4674776  20.6192461  36.4144742  41.1997758
  19.7662292  36.6294570  40.7035461  21.3622744  37.5146965  41.8084441
  20.8777813  38.4538596  41.5413521  21.4238625  37.4109851  43.3549989
  21.8927839  36.4552378  43.5890052  22.0633223  38.2231630  43.7007707
  20.0469095  37.4988998  44.0653880  19.3946574  36.7690070  43.5858837
  20.1749375  37.2364111  45.1155345  19.4190639  38.8894576  43.9607505
  20.1658555  39.8939661  44.1033128  18.1792356  38.9447005  43.7595918
  22.7270700  37.7774441  41.1575287  23.7410469  38.0511308  41.8103659
  22.7846290  37.7074559  39.8099926  21.9058482  37.5542713  39.3363070
  23.9929836  37.8333944  39.0022670  23.6879115  38.2593759  38.0464584
  24.6448397  38.5361848  39.5211780  24.7488404  36.5598179  38.7508545
  25.7381290  36.5531968  38.0125774  24.3048754  35.4296792  39.3226129
  23.4995823  35.4727073  39.9306845  24.9587320  34.1517112  39.1393963
  25.9323917  34.3127266  38.6766221  25.1663116  33.4088451  40.4850789
  24.2120242  33.3703187  41.0103889  25.5062234  32.3946566  40.2753607
  26.1825583  34.1103492  41.3432698  27.5191244  33.6946456  41.3210030
  27.7935467  32.8236105  40.7259486  28.4975572  34.3810914  42.0493157
  29.5417204  34.0780833  41.9717837  28.1445297  35.4671857  42.8485383
  29.1274623  36.1495500  43.5869550  30.0072407  35.7844088  43.4675330
  26.8060672  35.8515247  42.9323165  26.5176504  36.6752132  43.5853505
  25.8332028  35.1809239  42.1790254  24.7895230  35.4896734  42.2382396
  24.1613599  33.2616161  38.2008791  22.9509222  33.4185376  38.0249326
  24.8397053  32.2877255  37.5624908  25.8486114  32.3161767  37.5998849
  24.2084409  31.2733819  36.7315959  23.1435604  31.1884108  36.9481801
  24.4088740  31.4904652  35.2196486  23.8023028  32.3396940  34.9050343
  25.8881293  31.7670407  34.8917097  26.4953125  30.9179944  35.2056358
  26.0009768  31.9164995  33.8179182  26.2164549  32.6626373  35.4191641
  23.8674698  30.3329475  34.3370206  24.5207590  29.4781456  34.5120285
  22.8665008  30.1056788  34.7037759  23.8056087  30.6293480  32.8332886
  24.8063493  30.8562684  32.4656946  23.4143639  29.7588971  32.3066559
  23.1520924  31.4838036  32.6574423  24.6783275  29.9007587  37.1587737
  25.8437398  29.7078171  37.5154971  23.7673314  28.9025987  37.1502955
  22.7917006  29.1426353  37.0472111  24.1145993  27.5137195  37.3340490
  25.1719654  27.4422240  37.5889305  23.2887840  26.8544143  38.4624080
  22.2329940  27.0234547  38.2506722  23.4945187  25.7840809  38.4497769
  23.6324081  27.4277369  39.8539958  24.7086827  27.3153232  39.9847521
  23.3785376  28.4874960  39.8302795  22.9054004  26.7561486  41.0180086
  22.9532320  25.6700176  40.9397102  23.3199703  27.0694388  41.9761738
  21.4810183  27.1758073  40.9553890  21.3095638  28.1033681  40.5943715
  20.4344346  26.4256222  41.3067865  20.6058040  25.1777939  41.7320463
  21.5369251  24.7909289  41.7907735  19.8040924  24.6223644  41.9944510
  19.2152535  26.9479467  41.2557129  19.0908173  27.9034449  40.9529940
  18.4176042  26.3874920  41.5198056  23.9120627  26.7618862  36.0319835
  22.8614970  26.8265813  35.3930756  24.9461993  26.0243608  35.5919032
  25.8075659  26.0652660  36.1177109  24.9138790  25.2180932  34.3870144
  23.9033696  25.1653930  33.9818076  25.8863999  25.6669113  33.2821857
  25.8045126  25.0066863  32.4187635  25.5111559  27.1063694  32.8665786
  25.5932597  27.7673099  33.7294327  26.1879469  27.4469588  32.0829629
  24.4870684  27.1221344  32.4936235  27.3834475  25.5393296  33.6773557
  27.5470976  26.2028904  34.5264767  27.5448754  24.5068790  33.9873334
  28.3662546  25.8953312  32.5534144  28.2057318  26.9278544  32.2432077
  29.3884537  25.7794690  32.9136703  28.2035078  25.2318439  31.7040630
  25.2191667  23.8053276  34.8095233  25.8898094  23.5905352  35.8239179
  24.7108432  22.7968491  34.0719296  24.0155667  23.0115759  33.3715138
  25.0208288  21.4010955  34.3294854  24.7310348  21.2468809  35.3688778
  24.1818634  20.4585776  33.4379984  24.4671365  20.5948830  32.3948588
  24.3620834  19.4243535  33.7312585  23.1236284  20.6905926  33.5580271
  26.5083964  21.0682911  34.2195190  27.2333398  21.6266435  33.3980516
  26.9869400  20.1520202  35.0795543  26.3294874  19.7015216  35.6999625
  28.3859774  19.7923957  35.1832537  28.9974532  20.4415019  34.5564701
  28.8356562  19.9603370  36.6574035  28.7955731  21.0302453  36.8618268
  28.0849931  19.4476650  37.2588788  30.2312546  19.4229721  37.0131814
  30.2119057  18.3355376  36.9409814  30.9485631  19.8215134  36.2957308
  30.6470827  19.8350107  38.4368173  30.6564449  20.9248352  38.4539563
  29.8684585  19.4683081  39.1056768  32.0096684  19.3050825  38.8999676
  32.7616198  19.5514082  38.1503054  32.2728303  19.7771064  39.8465607
  31.9552439  17.8444306  39.0786342  31.7118286  17.4068220  38.2015097
  32.8577478  17.5086899  39.3833717  31.2588279  17.6159936  39.7735589
  28.5876229  18.3587232  34.7256301  27.8155142  17.4659915  35.0735746
  29.6479696  18.1010761  33.9290294  30.2206363  18.8812998  33.6402333
  30.0119553  16.7653288  33.4637039  31.0787223  16.6434185  33.6514410
  29.4529535  16.0540063  34.0716814  29.7366154  16.4908868  32.0135865
  29.9686666  15.3786964  31.5401578  29.2488836  17.4819311  31.2500992
  28.9736624  18.3490388  31.6888210  28.9803876  17.3115059  29.8269755
  29.5270177  16.4364475  29.4754538  27.4700062  17.1160426  29.5068735
  27.3778115  16.9817866  28.4291097  27.1417154  16.2092428  30.0148491
  26.6548372  18.2163463  29.9215543  25.7384494  18.0377347  29.6981015
  29.5474083  18.4246288  28.9764022  29.1341526  18.6142329  27.8301801
  30.5231067  19.1919336  29.4982969  30.7258337  19.0283576  30.4741268
  31.1590020  20.3220288  28.8426293  31.7259084  20.8890028  29.5810443
  32.1290998  19.8693695  27.7104390  32.6694595  18.9679027  27.9993477
  31.5126915  19.6585045  26.8365529  33.1441845  20.9502202  27.3425480
  33.4305438  21.8456620  28.1535216  33.7466167  20.8581355  26.1386153
  34.4232851  21.5547964  25.8613369  33.5181324  20.0929665  25.5202205
  30.1668048  21.3887694  28.3810936  30.2563008  21.9308248  27.2771549
  29.1788307  21.7254015  29.2389280  29.1069198  21.2255069  30.1135900
  28.1846210  22.7352511  28.9416675  27.6833084  22.4827494  28.0073079
  27.1235824  22.8331592  30.0604280  27.6566560  22.9757016  31.0004352
  26.5138842  23.7123583  29.8521565  26.2153594  21.5922556  30.1682160
  26.8356600  20.6976931  30.2237676  25.6122351  21.6722828  31.0726157
  25.2799577  21.4638174  28.9675085  24.3513922  22.2541772  28.7916608
  25.5182849  20.4468965  28.1054858  24.9246739  20.3241428  27.2976127
  26.2885650  19.8158230  28.2743530  28.8033923  24.0992266  28.7317227
  29.6234767  24.5602043  29.5223162  28.4556328  24.7500915  27.6080567
  27.8667563  24.2467005  26.9600433  28.9468058  26.0537458  27.2179841
  28.5046591  26.3120476  26.2557545  28.6050542  27.1765629  28.2397045
  29.3757280  27.2148367  29.0095721  28.5591741  28.1358903  27.7242572
  26.9570605  27.1141253  29.0283757  30.4467136  26.0682762  26.9306755
  31.0612525  27.1308552  26.9140083  31.0816825  24.8888721  26.7248224
  30.5128595  24.0572050  26.7946049  32.5227983  24.7299331  26.5789948
  32.7541619  23.6652455  26.5472094  33.0727332  25.3934822  25.2956230
  32.8967831  26.4587473  25.4451262  34.1451351  25.2077382  25.2360136
  32.4015811  24.9422058  23.9887476  31.3258036  25.1054999  24.0530812
  32.9730089  25.7578771  22.8237603  34.0487509  25.5947238  22.7584995
  32.5011430  25.4428519  21.8930603  32.7761007  26.8169728  22.9900248
  32.5747167  23.4376364  23.7225236  32.1296823  22.8699624  24.5397078
  32.0811246  23.1745080  22.7869855  33.6362436  23.2004197  23.6518990
  33.3096482  25.1615030  27.8144092  34.4284713  25.6688527  27.7344662
  32.7557159  24.9306250  29.0192911  31.8422702  24.4999150  29.0336167
  33.3114989  25.4153035  30.2777179  33.6500193  26.4513987  30.2745664
  32.3029024  25.2331907  31.4167790  31.3532882  25.6664298  31.1027155
  32.0959083  23.7464798  31.7761814  33.0450651  23.3126436  32.0908057
  31.3731696  23.6656383  32.5881013  31.7231041  23.2097504  30.9038052
  32.6705797  26.0939386  32.6451549  32.6823588  27.1463514  32.3616228
  31.9328282  25.9384971  33.4323400  33.6564326  25.8053529  33.0097273
  34.6916039  24.8715904  30.6579222  35.4710649  25.5310506  31.3491405
  35.0640278  23.6540232  30.2099540  34.4226867  23.1153871  29.6454611
  36.3260065  23.0430743  30.5917541  36.5830822  23.3441437  31.6073172
  36.2357129  21.4890670  30.5411453  37.0157798  21.1114794  31.2022221
  35.2585181  21.2220087  30.9434764  36.4021915  20.8668979  29.1447344
  35.7135772  21.3819085  28.4749021  37.4273463  21.0541868  28.8252311
  36.1215674  19.3570113  29.1050648  36.7023978  18.8816388  29.8954799
  35.0589875  19.2029110  29.2928851  36.4958276  18.7389209  27.7548398
  35.8457445  19.1454187  26.9800805  37.5327525  18.9817373  27.5226198
  36.3350090  17.2715366  27.8121970  35.3741441  17.0463180  28.0269409
  36.5833158  16.8704955  26.9191070  36.9376231  16.8946218  28.5297558
  37.5145788  23.5178333  29.7623267  38.6644642  23.2285213  30.0916883
  37.2838856  24.2215967  28.6413455  36.3277439  24.4629046  28.4230274
  38.2931552  24.4093284  27.6140117  38.9157444  23.5185802  27.5300510
  37.6089896  24.6619267  26.2559110  37.1586688  25.6545508  26.2531029
  38.3478569  24.5964606  25.4572312  36.5067599  23.5936905  26.0291554
  36.7642317  22.7991038  26.7294704  35.5523671  24.0351094  26.3161793
  36.3966936  23.0172981  24.6281164  36.6604472  23.7340389  23.6372851
  35.9836430  21.8242200  24.5757731  39.4394033  25.3612073  27.9387486
  40.5878155  25.0875772  27.5771675  39.1753732  26.4606627  28.6629584
  38.2408126  26.5537840  29.0344745  40.1285224  27.5245424  28.9227751
  41.1387413  27.1459127  28.7672229  39.9043904  28.7394031  27.9841467
  38.8544065  29.0169834  28.0767864  40.5283922  29.5481296  28.3645191
  40.2413533  28.4849391  26.4934807  39.7034563  27.5739046  26.2312142
  39.8778351  29.3099981  25.8809193  41.7328601  28.2845352  26.2427464
  42.5459047  28.7795640  27.0645804  42.0568842  27.6825554  25.1870360
  39.9856631  27.9623167  30.3706614  39.4783135  29.0467189  30.6728107
  40.3905470  27.0915029  31.3154133  40.7362034  26.1947627  31.0048042
  40.3359611  27.3504100  32.7383337  39.6553148  28.1797363  32.9307851
  39.8111946  26.0999112  33.4765930  40.4872825  25.2631772  33.3008620
  39.7573817  26.3044954  34.5458683  38.8179467  25.8480445  33.1049464
  41.7032949  27.7248514  33.2965748  42.7001305  27.0496099  33.0497879
  41.7957904  28.8058557  34.0918836  40.9848561  29.3819478  34.2668202
  43.0818406  29.2510317  34.6057331  43.6449167  28.3732665  34.9228654
  43.9297540  30.0360388  33.5651220  44.8979992  30.2487324  34.0182908
  44.0691816  29.3921379  32.6967606  43.3175161  31.2577476  33.1572035
  43.8805357  31.6998347  32.5175413  42.9416433  30.0460254  35.8833926
  41.8510271  30.4352964  36.3003883  44.0595159  30.2429403  36.6064136
  44.9436327  29.8603019  36.3030581  44.0250862  30.9952763  37.8444811
  43.2637381  31.7718534  37.7711582  43.6923891  30.0883566  39.0566103
  42.8466537  29.4577279  38.7824967  44.5619427  29.4623145  39.2567300
  43.3664922  30.8389483  40.2281137  43.1687442  30.2368347  40.9491925
  45.3553000  31.6601270  38.1063413  46.4086866  31.0717063  37.8618198
  45.3443171  32.9011796  38.6280853  44.4597935  33.3867826  38.5844144
  46.4785561  33.5924119  39.2007621  47.2668633  33.6274769  38.4488036
  46.1042438  35.0345980  39.5887821  45.3221870  35.0158445  40.3478180
  46.9824074  35.5443189  39.9851576  45.7427663  35.5660726  38.7084594
  47.0244527  32.8856146  40.4300417  46.2966721  32.2133206  41.1574599
  48.3314475  33.0319500  40.6940959  48.9116369  33.5048295  40.0159627
  48.9604731  32.5018836  41.8841104  48.2480711  31.9174341  42.4663486
  50.1525422  31.6138335  41.5382460  50.8284547  32.1822609  40.8993941
  50.9081921  31.1483874  42.8006034  50.2330040  30.5794554  43.4397734
  51.7491530  30.5188262  42.5098492  51.2769434  32.0176396  43.3451442
  49.6575475  30.3840113  40.7456859  49.1698901  30.7143782  39.8285435
  50.5056991  29.7464244  40.4962437  48.9472307  29.8221023  41.3521587
  49.3830850  33.6775410  42.7455174  50.0500661  34.6088680  42.2833204
  48.9862847  33.6654042  44.0297456  48.3290190  32.9463615  44.2963516
  49.4208591  34.6048988  45.0387436  49.9294310  35.4512747  44.5771142
  48.2502864  35.1326276  45.8714019  47.7175666  34.2796909  46.2918871
  48.7261311  36.0528215  47.0109918  49.2585757  36.9062876  46.5912307
  47.8644181  36.4057070  47.5775807  49.3926631  35.4986682  47.6718630
  47.2754257  35.9011956  44.9574764  46.8983826  35.2325337  44.1836342
  46.4413541  36.2774150  45.5498302  47.7962465  36.7378583  44.4918135
  50.3947544  33.8310128  45.9002784  50.1391824  32.6575117  46.2155358
  51.5476693  34.4261369  46.2337159  51.7257121  35.3412579  45.8451882
  52.5509048  33.8422995  47.1127342  52.4268396  32.7621133  47.0358910
  53.5516278  34.1171821  46.7794291  52.3801729  34.2616263  48.5795364
  51.5091232  35.1205531  48.8788460  53.1746675  33.7474736  49.4106250
  30.7215958  52.6355840  54.5990842  72.0596631  46.5323541  57.5776255
  19.8822208  37.3063919   1.4972062  12.1244076  22.3233255  42.8690326
   8.7612958  18.0391539  17.1831271  41.8670938  11.8205186  60.5750235
   3.8295564  13.1050096  24.5043777  45.3403348  39.2363289  66.8991135
   5.5043707  53.0203837  59.2687047  27.1607590  36.1915421  66.5961761
  70.4643971  53.6862239  43.8048662  44.1448088  67.2557742  56.4350431
  22.1106886   5.3138311  41.9379047  35.4580981  37.2084528  77.9867981
  34.5508042  36.9773781  78.1859130  35.9552013  36.4122147  78.1741962
  36.8067467  34.9390083  78.4295636  37.7526572  34.8096291  78.4984054
  36.4281712  34.2004745  78.9065064  37.7863197  18.6256544  68.9073916
  37.1351177  19.2110624  68.5207930  38.5807560  19.1562738  68.9668953
  44.0529921  15.1181479  70.1678753  43.2759364  14.7792639  69.7233915
  44.7321402  15.1234103  69.4933718  35.4580982  14.2146650  64.7113287
  34.5508044  13.9835904  64.9104436  35.9552014  13.4184270  64.8987269
  38.3649061  22.9244158  67.6309973  37.6910760  23.2275854  68.2394931
  38.7514883  23.7273238  67.2815431  36.3345303  15.8567989  66.5725356
  35.8964733  15.1403848  66.1130993  37.0755744  16.0844104  66.0110447
  36.5640276  23.0923830  69.8457053  36.7392032  22.6211873  70.6602675
  35.8773064  23.7189596  70.0738313  40.4556531  14.7152371  66.1657414
  39.8385701  13.9899199  66.0690466  39.9873019  15.4761731  65.8224488
  41.2794216  18.0391543  70.2850053  41.5554060  17.9248137  71.1943927
  40.4098715  17.6409027  70.2462226  38.2490446  21.2146079  71.1897915
  38.7778212  20.7038533  70.5768078  38.5118665  20.8988609  72.0543448
  41.3430629  21.1862877  71.8052898  41.5167507  20.6209299  71.0526751
  41.8359520  21.9863772  71.6232388  42.3305802  20.5029641  68.9049797
  43.0256706  21.1236334  69.1237111  42.6728952  19.6524992  69.1802175
  44.2297225  17.9529347  70.4337127  44.7548549  18.2916619  69.7086447
  44.1419577  17.0176362  70.2500262  36.4220670  20.6091393  67.8124890
  35.8494637  21.2281580  67.3595362  36.9953464  21.1590755  68.3464812
  39.6417930  20.8928543  68.9433473  40.5748603  20.8274105  69.1466348
  39.5541143  21.7284810  68.4848005  42.2705947  20.2094413  65.9037420
  42.1919578  19.8754277  66.7973178  43.0915613  20.7016181  65.9028892
  36.8067469  11.9452206  65.1540943  37.7526573  11.8158414  65.2229361
  36.4281714  11.2066867  65.6310371  39.8409898  17.5262409  65.5247398
  40.5445748  17.7312411  66.1405054  39.1172547  18.0939171  65.7896482
  41.7496596  17.9644938  67.5745858  42.5842200  17.5326136  67.3923333
  41.5880939  17.7926952  68.5022753  41.4042488  14.4677051  68.9402198
  41.3491292  14.3021323  67.9990642  40.7788543  15.1753084  69.0964387
  50.3780871  28.4814589  77.6701035  51.0159281  28.3621336  76.9664375
  50.2601714  29.4295433  77.7288987  47.1870577  28.4342017  77.6062560
  46.8489089  28.3183082  76.7183095  48.0560345  28.0333182  77.5863566
  43.0457393  30.2877494  73.5959451  42.4822258  30.1967430  72.8275739
  42.9309788  29.4677398  74.0761943  40.5921825  31.7828685  76.4343671
  41.3843117  31.4419510  76.0189971  40.8318475  31.8923660  77.3545825
  48.6256951  33.9548461  68.9073916  47.9744931  34.5402542  68.5207930
  49.4201314  34.4854656  68.9668953  42.5512579  31.0437598  69.3061050
  43.3243455  30.4966585  69.1673926  42.9037978  31.9081848  69.5175512
  45.3153828  29.7490829  79.1029309  45.9117400  29.5246852  78.3886272
  45.3728800  29.0075575  79.7054757  44.8878856  27.2030264  66.9379500
  45.1404377  26.6811786  66.1762963  43.9503416  27.0396410  67.0406184
  49.9322139  26.2066043  74.7454243  50.7185229  25.7885466  74.3944660
  50.1960844  27.1112135  74.9135892  50.1032217  31.6438893  69.4442900
  49.4678050  31.7173520  70.1563805  49.7729623  32.2332492  68.7661979
  44.6075145  29.1058370  69.1403875  44.4911403  28.4303274  69.8084959
  44.7177405  28.6190744  68.3236028  46.9506686  28.5668518  72.8450564
  46.5864893  28.0399139  73.5563486  47.8073802  28.1766987  72.6717050
  46.5912173  23.5958417  67.8411913  46.7586575  24.4638654  68.2082384
  46.4009342  23.7585699  66.9173202  42.7999988  28.5089193  75.5414448
  41.8750484  28.3765407  75.7492139  43.0484401  29.2883412  76.0384390
  46.5701394  26.0516075  68.8258580  46.4501019  26.4973126  69.6644060
  45.8753982  26.4001392  68.2672118  40.1608799  28.1522467  76.3758237
  40.2901180  28.4056945  77.2897648  39.4806250  28.7450175  76.0562892
  44.3308286  38.8219717  72.4748711  44.2532316  39.7727542  72.5537191
  43.7269930  38.4765589  73.1323637  52.2686460  26.5237548  69.6538914
  53.1804316  26.7564935  69.4786611  51.7596107  27.1074592  69.0913992
  46.4284004  31.2437774  74.3102580  46.8922350  31.5225477  73.5207203
  46.1640802  30.3421219  74.1275671  43.3208085  30.7909256  77.2482343
  43.8909442  31.2196524  76.6099828  43.9116197  30.5091841  77.9466529
  45.3652890  27.3660927  71.1192145  46.0676934  27.8181971  71.5866072
  45.0333519  26.7244746  71.7472038  41.0592970  25.9889059  73.3792756
  40.2624133  26.1007753  73.8976251  40.8318562  26.3275711  72.5133646
  46.6046655  34.1801869  71.1954251  46.4692330  35.0253405  71.6239098
  47.1456468  34.3821147  70.4320184  40.0576052  31.6977307  71.7682176
  40.5700573  32.4920558  71.9187740  40.7098765  31.0003598  71.7015777
  41.8670937  34.8143064  73.8504929  42.0437565  35.7361028  73.6625913
  42.6627771  34.5001483  74.2799309  38.0224969  30.0265962  72.5441746
  38.8600191  30.4362970  72.3275454  38.2003237  29.0865404  72.5141940
  49.9189401  27.6941042  68.2325579  49.4036025  28.4645647  68.4713967
  49.6466710  27.0206179  68.8558641  47.5036512  22.5390743  73.2910817
  46.6478109  22.1497594  73.1116456  47.9163464  22.6182704  72.4310603
  54.8923675  30.4473397  70.1678753  54.1153118  30.1084557  69.7233915
  55.5715156  30.4526020  69.4933718  49.7075704  25.5668135  70.0585360
  49.4025840  25.8814284  70.9095503  50.6606147  25.6449554  70.1012693
  48.1522136  31.7258358  71.7078314  47.6243498  30.9911117  71.3951552
  47.6509639  32.5033034  71.4618283  42.8840864  22.3878024  74.0684926
  43.4584616  22.1653206  73.3358119  43.4711846  22.4566719  74.8213527
  51.9420441  28.2751751  74.8749302  52.4552323  28.9081743  75.3771012
  52.5921665  27.6752947  74.5092662  43.2110451  24.4182485  68.0880811
  42.3747763  24.7557172  68.4090086  43.0715221  24.2831465  67.1507948
  45.1863532  19.2619273  72.7959995  44.5327944  18.9468290  72.1716610
  45.1444006  18.6395014  73.5219818  46.2974736  29.5438568  64.7113287
  45.3901798  29.3127822  64.9104436  46.7945768  28.7476187  64.8987269
  49.2042815  38.2536075  67.6309973  48.5304514  38.5567772  68.2394931
  49.5908637  39.0565156  67.2815431  48.4201272  25.7501207  77.1207643
  47.5023833  25.9716154  76.9629331  48.8361416  25.8247517  76.2619350
  49.2036320  27.1492622  72.2510323  49.9508139  27.6614019  71.9417445
  49.4727909  26.8276675  73.1114717  47.4762970  29.6451163  69.2337277
  46.5674189  29.3610196  69.3309747  47.5058054  30.0650242  68.3740584
  52.7082237  33.2557752  73.0028445  52.2544564  32.4148662  73.0593635
  52.0776204  33.8919151  73.3403225  51.6515157  24.1849739  74.2329112
  50.9137914  23.6727125  74.5639355  51.9041930  23.7450120  73.4212389
  51.1515177  35.0934249  73.9378263  51.4438151  35.6539306  73.2190629
  51.6613797  35.3862810  74.6931422  38.0451140  27.3656677  73.2152480
  37.8475540  26.7726038  72.4903546  37.4897804  27.0608887  73.9328418
  46.0247864  27.2579784  75.3347073  46.0796474  26.3053620  75.2589549
  45.2139066  27.4139223  75.8188371  47.1739058  31.1859907  66.5725356
  46.7358488  30.4695766  66.1130993  47.9149499  31.4136021  66.0110447
  43.9640224  25.8756843  73.0937452  43.1508089  26.1751014  73.5002644
  44.4599218  25.4812532  73.8111934  46.1148802  35.8714600  75.0271716
  46.0724981  36.0975447  74.0980248  47.0311501  35.6377975  75.1757517
  55.2912173  29.4617104  72.6301675  55.1530071  29.6518700  71.7022864
  54.9348391  30.2236487  73.0869726  44.2314603  32.7477629  74.8233679
  45.0255201  32.2527949  74.6216254  43.5206295  32.2195492  74.4601385
  40.5397366  26.8920711  70.8993432  39.6094954  26.8305167  71.1163394
  40.6354838  26.3696664  70.1030073  40.4582915  23.4175524  73.4871673
  40.7189732  24.3320857  73.3780834  41.2800087  22.9499966  73.6368286
  47.4034031  38.4215748  69.8457053  47.5785786  37.9503791  70.6602675
  46.7166819  39.0481514  70.0738313  48.3591094  32.6988254  75.8920354
  48.0240926  32.6589024  76.7878004  47.8595039  32.0332970  75.4190764
  51.2950285  30.0444288  66.1657414  50.6779456  29.3191116  66.0690466
  50.8266774  30.8053649  65.8224488  43.0848831  24.2629713  65.2878718
  42.2078298  24.1418513  64.9240964  43.5606584  23.4715791  65.0357606
  34.6050971  29.0506872  75.3820225  35.2922011  28.7368602  74.7941240
  34.4499100  29.9548237  75.1087476  46.2712757  36.6156003  72.5341238
  45.4880279  37.1577683  72.6279463  46.9705502  37.1329983  72.9335480
  49.5809407  22.4250632  75.1775444  50.0778107  21.6720595  74.8576514
  48.8096389  22.4614949  74.6118653  50.6639188  31.1822320  72.7513867
  49.7295467  31.3023782  72.5818571  50.8415857  30.2794786  72.4873877
  46.1644376  24.5668015  74.9047128  45.7942164  24.0139056  75.5928034
  46.6603469  23.9626149  74.3522128  54.0511739  27.0239639  73.2863901
  54.5172192  27.8567631  73.2124204  54.5019240  26.5584621  73.9909160
  52.1187971  33.3683460  70.2850053  52.3947814  33.2540055  71.1943927
  51.2492469  32.9700945  70.2462226  48.7542035  37.6169811  73.9282867
  48.9364429  36.7991467  74.3910619  49.5775021  37.8337503  73.4907757
  49.0884200  36.5437996  71.1897915  49.6171966  36.0330451  70.5768078
  49.3512420  36.2280526  72.0543448  39.5901293  34.5601865  78.9333249
  40.1754730  33.8145553  79.0661153  39.3926131  34.8705822  79.8169913
  42.4439948  37.5953113  73.9495691  41.7750323  38.0799241  73.4659731
  42.3052818  37.8422333  74.8639070  37.8127525  25.8571568  70.7291623
  38.1080966  24.9482246  70.6758677  36.9115561  25.8359307  70.4072626
  39.5415367  23.5385666  70.8530949  39.2128073  22.6583044  70.6706055
  39.8954737  23.4833334  71.7407338  48.7894946  35.1740568  75.3625934
  48.6419908  34.2457276  75.5433504  49.6148439  35.1960659  74.8783009
  42.6557190  23.8258635  71.2206426  42.9953262  24.3544557  70.4985035
  43.1029310  24.1639041  71.9964993  44.6425337  22.3233257  69.4199719
  45.3633699  22.7014510  68.9163436  44.0190641  23.0422134  69.5234697
  48.7856460  23.0278406  70.3558051  49.0020074  23.9103044  70.0546880
  48.3050527  22.6364619  69.6263693  52.1824384  36.5154794  71.8052898
  52.3561261  35.9501217  71.0526751  52.6753275  37.3155689  71.6232388
  44.7888960  21.8581047  72.2497256  44.9104871  20.9297694  72.4488143
  44.4991002  21.8719733  71.3375571  53.1699556  35.8321559  68.9049797
  53.8650461  36.4528251  69.1237111  53.5122706  34.9816910  69.1802175
  55.0690979  33.2821264  70.4337127  55.5942303  33.6208537  69.7086447
  54.9813332  32.3468280  70.2500262  39.2323979  35.5404788  74.7957009
  40.0581999  35.2408560  74.4155652  38.8818031  34.7712411  75.2446797
  44.2005512  34.8931257  76.8654682  43.5785521  34.2301962  76.5656910
  44.8710379  34.9192389  76.1828330  37.4332584  33.4591115  75.7545942
  36.5964492  33.0313289  75.5729944  37.4056229  33.6523558  76.6916733
  43.7619019  33.4435180  70.3413143  43.9107139  34.1270644  69.6879816
  44.5685462  33.4240270  70.8562599  41.5171652  29.4700358  71.3474212
  41.2717694  28.5662688  71.5454422  41.6867567  29.4717508  70.4053690
  40.7867300  25.2028715  68.8460373  40.0936544  25.2773070  68.1900409
  40.5419051  24.4389059  69.3681890  47.2614425  35.9383310  67.8124890
  46.6888392  36.5573498  67.3595362  47.8347218  36.4882672  68.3464812
  50.4811684  36.2220461  68.9433473  51.4142357  36.1566022  69.1466348
  50.3934897  37.0576727  68.4848005  53.1099701  35.5386331  65.9037420
  53.0313333  35.2046195  66.7973178  53.9309368  36.0308099  65.9028892
  47.6461223  27.2744123  65.1540943  48.5920328  27.1450331  65.2229361
  47.2675468  26.5358785  65.6310371  45.8304140  25.1994100  65.0895828
  44.9235596  24.9027212  65.1658542  46.1080121  24.9023918  64.2230114
  47.4466206  19.7430989  71.2440069  46.6366934  19.3978074  71.6195315
  48.1350623  19.4338533  71.8327681  49.3756754  18.8209036  72.8664366
  49.9287793  19.2404490  73.5254389  49.6126841  17.8944784  72.9087322
  44.6002925  22.0581035  65.2307807  45.4622089  22.3835933  65.4903625
  44.7853269  21.2712531  64.7180873  52.7535561  20.9309561  72.3743030
  52.1734230  21.5894365  71.9921083  52.4871494  20.1086906  71.9630448
  38.5307083  30.0721628  75.3854011  38.5077771  30.1709316  74.4335894
  38.8407720  30.9186779  75.7071177  51.5360439  23.0909652  71.4299378
  50.6486294  23.3759302  71.2119573  51.9514428  22.9303415  70.5826655
  39.5444690  37.6717403  76.5170823  39.4099158  36.9117804  75.9508821
  39.1276752  38.3958303  76.0499612  50.6803653  32.8554326  65.5247398
  51.3839503  33.0604329  66.1405054  49.9566302  33.4231088  65.7896482
  51.5101463  28.6064188  71.6449669  51.4536664  29.0632739  70.8057301
  52.0629806  27.8454872  71.4672511  52.5890350  33.2936856  67.5745858
  53.4235954  32.8618054  67.3923333  52.4274693  33.1218869  68.5022753
  52.2436242  29.7968969  68.9402198  52.1885046  29.6313240  67.9990642
  51.6182298  30.5045002  69.0964387  45.5532368  19.2977078  68.5187516
  45.5411038  20.2418918  68.6755787  46.4455790  19.1147223  68.2246977
  55.7272611  42.5322182  66.9379500  55.9798132  42.0103703  66.1762963
  54.7897170  42.3688328  67.0406184  57.4305928  38.9250335  67.8411913
  57.5980330  39.7930571  68.2082384  57.2403097  39.0877617  66.9173202
  54.0504206  39.7474403  68.0880811  53.2141518  40.0849089  68.4090086
  53.9108975  39.6123383  67.1507948  56.0257286  34.5911191  72.7959995
  55.3721698  34.2760208  72.1716610  55.9837760  33.9686931  73.5219818
  57.1368491  44.8730486  64.7113287  56.2295553  44.6419739  64.9104436
  57.6339523  44.0768105  64.8987269  51.3791121  42.2212629  70.8993432
  50.4488709  42.1597084  71.1163394  51.4748592  41.6988581  70.1030073
  53.9242586  39.5921630  65.2878718  53.0472052  39.4710431  64.9240964
  54.4000339  38.8007709  65.0357606  48.6521280  41.1863486  70.7291623
  48.9474721  40.2774164  70.6758677  47.7509315  41.1651225  70.4072626
  50.3809121  38.8677583  70.8530949  50.0521827  37.9874962  70.6706055
  50.7348492  38.8125252  71.7407338  55.4819091  37.6525175  69.4199719
  56.2027454  38.0306427  68.9163436  54.8584396  38.3714051  69.5234697
  51.6261054  40.5320633  68.8460373  50.9330299  40.6064988  68.1900409
  51.3812806  39.7680977  69.3681890  58.4854978  42.6036041  65.1540943
  59.4314082  42.4742249  65.2229361  58.1069222  41.8650703  65.6310371
  56.6697895  40.5286017  65.0895828  55.7629350  40.2319130  65.1658542
  56.9473876  40.2315835  64.2230114  58.2859960  35.0722907  71.2440069
  57.4760689  34.7269992  71.6195315  58.9744377  34.7630451  71.8327681
  55.4396679  37.3872953  65.2307807  56.3015843  37.7127851  65.4903625
  55.6247023  36.6004448  64.7180873  56.3926122  34.6268996  68.5187516
  56.3804792  35.5710835  68.6755787  57.2849544  34.4439141  68.2246977
  38.3649062  -0.0693720  54.3555280  37.6910761   0.2337977  54.9640238
  38.7514884   0.7335361  54.0060737  36.5640277   0.0985953  56.5702359
  36.7392033  -0.3726004  57.3847982  35.8773065   0.7251719  56.7983620
  50.3780872   5.4876712  64.3946342  51.0159282   5.3683459  63.6909682
  50.2601715   6.4357556  64.4534294  47.1870578   5.4404140  64.3307867
  46.8489090   5.3245204  63.4428401  48.0560347   5.0395305  64.3108873
  43.0457394   7.2939616  60.3204758  42.4822259   7.2029553  59.5521045
  42.9309789   6.4739521  60.8007250  40.5921826   8.7890808  63.1588978
  41.3843118   8.4481632  62.7435277  40.8318476   8.8985783  64.0791131
  48.6256953  10.9610584  55.6319222  47.9744933  11.5464664  55.2453236
  49.4201316  11.4916779  55.6914260  42.5512580   8.0499721  56.0306357
  43.3243456   7.5028708  55.8919233  42.9037979   8.9143970  56.2420818
  45.3153829   6.7552952  65.8274616  45.9117402   6.5308974  65.1131579
  45.3728801   6.0137697  66.4300064  44.8878858   4.2092387  53.6624807
  45.1404378   3.6873908  52.9008270  43.9503417   4.0458533  53.7651490
  50.1032218   8.6501016  56.1688207  49.4678051   8.7235642  56.8809111
  49.7729624   9.2394615  55.4907286  44.6075146   6.1120493  55.8649182
  44.4911405   5.4365396  56.5330266  44.7177406   5.6252867  55.0481335
  46.9506687   5.5730640  59.5695871  46.5864895   5.0461261  60.2808792
  47.8073803   5.1829109  59.3962356  49.3487508   9.0637519  66.2323050
  49.0488231   9.9662558  66.1238857  49.0038567   8.7969702  67.0844203
  42.7999989   5.5151316  62.2659754  41.8750486   5.3827530  62.4737446
  43.0484402   6.2945535  62.7629697  46.5701395   3.0578197  55.5503886
  46.4501020   3.5035248  56.3889366  45.8753984   3.4063515  54.9917424
  40.1608800   5.1584589  63.1003543  40.2901181   5.4119068  64.0142955
  39.4806251   5.7512297  62.7808198  44.3308287  15.8281839  59.1994017
  44.2532317  16.7789664  59.2782498  43.7269931  15.4827712  59.8568944
  50.8756044   8.5125489  63.7697802  50.2464906   8.6771203  63.0673870
  50.4881706   8.9267099  64.5408766  54.7545276   9.4479927  61.1242165
  54.0696314   9.8278828  60.5739199  54.8389125  10.0575253  61.8574113
  46.4284006   8.2499897  61.0347887  46.8922351   8.5287600  60.2452509
  46.1640804   7.3483342  60.8520977  43.3208087   7.7971379  63.9727650
  43.8909444   8.2258647  63.3345135  43.9116198   7.5153963  64.6711836
  45.3652892   4.3723049  57.8437452  46.0676935   4.8244093  58.3111378
  45.0333520   3.7306868  58.4717345  41.0592971   2.9951181  60.1038062
  40.2624134   3.1069876  60.6221558  40.8318563   3.3337834  59.2378953
  46.8898639   9.5195885  68.0520577  46.9543071   9.9816292  68.8878749
  46.1809562   8.8893249  68.1802887  46.6046656  11.1863992  57.9199557
  46.4692331  12.0315528  58.3484405  47.1456469  11.3883270  57.1565491
  40.0576054   8.7039430  58.4927482  40.5700574   9.4982680  58.6433047
  40.7098766   8.0065721  58.4261084  42.9902254  13.3383360  66.5760578
  43.5409679  13.2100424  65.8037572  42.1513730  13.6378249  66.2255471
  38.0224970   7.0328084  59.2687053  38.8600192   7.4425093  59.0520761
  38.2003238   6.0927527  59.2387247  49.9189403   4.7003165  54.9570886
  49.4036026   5.4707770  55.1959273  49.6466711   4.0268301  55.5803947
  54.8923677   7.4535520  56.8924059  54.1153119   7.1146679  56.4479221
  55.5715158   7.4588143  56.2179024  48.1522138   8.7320480  58.4323621
  47.6243499   7.9973240  58.1196858  47.6509640   9.5095157  58.1863589
  53.1314984   6.9269501  63.5490667  52.4738658   7.6168762  63.6370796
  53.9355383   7.3165933  63.8924654  51.9420442   5.2813874  61.5994609
  52.4552324   5.9143865  62.1016319  52.5921666   4.6815069  61.2337969
  43.2110452   1.4244608  54.8126118  42.3747765   1.7619294  55.1335392
  43.0715222   1.2893588  53.8753255  46.2974738   6.5500691  51.4358594
  45.3901799   6.3189944  51.6349743  46.7945770   5.7538310  51.6232575
  49.2042817  15.2598198  54.3555280  48.5304515  15.5629895  54.9640238
  49.5908639  16.0627278  54.0060737  48.4201273   2.7563329  63.8452949
  47.5023835   2.9778276  63.6874638  48.8361417   2.8309640  62.9864657
  49.2036321   4.1554745  58.9755630  49.9508140   4.6676142  58.6662752
  49.4727911   3.8338798  59.8360023  47.4762971   6.6513286  55.9582584
  46.5674190   6.3672318  56.0555054  47.5058055   7.0712364  55.0985891
  52.7082239  10.2619875  59.7273752  52.2544566   9.4210785  59.7838942
  52.0776205  10.8981273  60.0648532  51.1515178  12.0996372  60.6623570
  51.4438152  12.6601429  59.9435935  51.6613798  12.3924933  61.4176729
  38.0451142   4.3718800  59.9397786  37.8475541   3.7788160  59.2148853
  37.4897806   4.0671010  60.6573725  46.0247865   4.2641906  62.0592379
  46.0796475   3.3115743  61.9834856  45.2139067   4.4201345  62.5433678
  47.1739059   8.1922029  53.2970663  46.7358489   7.4757888  52.8376300
  47.9149500   8.4198144  52.7355754  43.9640225   2.8818966  59.8182758
  43.1508091   3.1813136  60.2247950  44.4599219   2.4874655  60.5357240
  46.1148803  12.8776723  61.7517023  46.0724982  13.1037569  60.8225555
  47.0311502  12.6440097  61.9002824  55.2912174   6.4679226  59.3546981
  55.1530072   6.6580822  58.4268170  54.9348393   7.2298609  59.8115032
  44.2314604   9.7539752  61.5478986  45.0255202   9.2590072  61.3461561
  43.5206296   9.2257615  61.1846691  49.0509448  12.1357847  65.8991353
  49.1046471  12.7048784  66.6669069  48.1824230  12.3059732  65.5345390
  40.5397367   3.8982834  57.6238738  39.6094955   3.8367289  57.8408700
  40.6354839   3.3758786  56.8275380  40.4582916   0.4237646  60.2116980
  40.7189734   1.3382980  60.1026140  41.2800089  -0.0437911  60.3613593
  48.0097548   6.3018109  67.4578285  48.9389608   6.4529269  67.2847252
  47.5888578   6.3902130  66.6026932  46.8085880  10.3268774  65.2276823
  46.6696966   9.9587558  66.1002761  46.0200476  10.8416413  65.0560781
  47.4034032  15.4277870  56.5702359  47.5785787  14.9565914  57.3847982
  46.7166820  16.0543637  56.7983620  48.3591095   9.7050377  62.6165661
  48.0240928   9.6651147  63.5123310  47.8595041   9.0395092  62.1436071
  51.2950287   7.0506411  52.8902720  50.6779457   6.3253239  52.7935773
  50.8266775   7.8115771  52.5469794  41.9695117  18.5767233  63.3442219
  42.2091715  19.2085757  64.0221238  41.1264314  18.2255273  63.6307579
  34.6050973   6.0568995  62.1065532  35.2922012   5.7430725  61.5186547
  34.4499101   6.9610360  61.8332783  46.4822979  14.3846356  65.7483723
  46.4093150  15.1901327  66.2603028  46.0400372  14.5838321  64.9231745
  46.2712759  13.6218126  59.2586545  45.4880280  14.1639806  59.3524769
  46.9705504  14.1392105  59.6580786  48.9421662  14.2833190  67.9041882
  49.6549635  14.9180654  67.8317784  48.4511691  14.3797056  67.0881884
  50.6639189   8.1884442  59.4759174  49.7295468   8.3085905  59.3063878
  50.8415858   7.2856909  59.2119184  43.9933576  12.0327633  68.7247453
  44.6943035  12.6664116  68.8776847  43.5228691  12.3742365  67.9643092
  52.1187972  10.3745583  57.0095360  52.3947816  10.2602177  57.9189234
  51.2492471   9.9763068  56.9707533  48.7542036  14.6231934  60.6528174
  48.9364430  13.8053590  61.1155926  49.5775022  14.8399626  60.2153064
  49.0884201  13.5500119  57.9143222  49.6171968  13.0392573  57.3013384
  49.3512421  13.2342649  58.7788755  39.5901294  11.5663988  65.6578556
  40.1754731  10.8207676  65.7906460  39.3926132  11.8767945  66.5415219
  42.4439949  14.6015235  60.6740998  41.7750325  15.0861363  60.1905038
  42.3052819  14.8484456  61.5884377  46.5845218  16.6358979  67.2723656
  47.1363526  16.7990600  68.0372742  46.9251411  17.2263417  66.6003681
  37.8127526   2.8633690  57.4536930  38.1080967   1.9544369  57.4003984
  36.9115562   2.8421430  57.1317932  49.7213605  14.5840955  64.2587339
  49.5964745  13.7830694  63.7498284  50.3792696  15.0787148  63.7701308
  51.7848514  12.3849975  65.8866889  50.8378849  12.2655326  65.8145215
  52.1331287  11.4972473  65.9693150  39.5415368   0.5447788  57.5776255
  39.2128074  -0.3354833  57.3951361  39.8954739   0.4895457  58.4652645
  48.7894947  12.1802691  62.0871241  48.6419909  11.2519398  62.2678811
  49.6148440  12.2022782  61.6028316  42.6557191   0.8320758  57.9451733
  42.9953264   1.3606679  57.2230341  43.1029312   1.1701164  58.7210300
  52.3929069  13.0031250  63.1736114  53.3175616  12.7974111  63.0360565
  52.2244372  12.7547651  64.0825455  52.1824385  13.5216917  58.5298205
  52.3561262  12.9563339  57.7772057  52.6753276  14.3217812  58.3477695
  53.1699557  12.8383681  55.6295103  53.8650462  13.4590374  55.8482418
  53.5122707  11.9879033  55.9047481  55.0690980  10.2883387  57.1582434
  55.5942305  10.6270660  56.4331754  54.9813333   9.3530402  56.9745569
  46.7311029  14.2017461  69.2872311  47.0398156  13.9566607  70.1595010
  47.5286511  14.4064099  68.7991181  46.7531641  16.3555370  61.5177687
  46.3136632  15.8631749  62.2110544  47.5039758  15.8128338  61.2769763
  39.2323980  12.5466911  61.5202315  40.0582000  12.2470683  61.1400959
  38.8818032  11.7774534  61.9692104  44.2005513  11.8993379  63.5899989
  43.5785523  11.2364084  63.2902217  44.8710380  11.9254511  62.9073637
  37.4332585  10.4653238  62.4791249  36.5964494  10.0375412  62.2975250
  37.4056231  10.6585681  63.4162040  43.7619020  10.4497303  57.0658449
  43.9107141  11.1332767  56.4125122  44.5685464  10.4302393  57.5807905
  41.5171653   6.4762480  58.0719518  41.2717695   5.5724810  58.2699729
  41.6867568   6.4779631  57.1298996  40.7867301   2.2090838  55.5705680
  40.0936546   2.2835193  54.9145716  40.5419053   1.4451181  56.0927197
  47.2614426  12.9445433  54.5370197  46.6888393  13.5635620  54.0840669
  47.8347219  13.4944795  55.0710119  50.4811686  13.2282583  55.6678779
  51.4142359  13.1628145  55.8711655  50.3934898  14.0638850  55.2093312
  53.1099702  12.5448454  52.6282727  53.0313334  12.2108317  53.5218485
  53.9309369  13.0370221  52.6274199  47.6461224   4.2806246  51.8786249
  48.5920329   4.1512454  51.9474667  47.2675469   3.5420908  52.3555678
  45.8304141   2.2056222  51.8141135  44.9235597   1.9089335  51.8903848
  46.1080122   1.9086040  50.9475421  38.5307084   7.0783751  62.1099317
  38.5077772   7.1771438  61.1581201  38.8407721   7.9248902  62.4316484
  39.5444691  14.6779525  63.2416130  39.4099159  13.9179926  62.6754128
  39.1276753  15.4020425  62.7744919  50.6803654   9.8616449  52.2492705
  51.3839504  10.0666451  52.8650361  49.9566303  10.4293211  52.5141789
  51.5101464   5.6126310  58.3694975  51.4536666   6.0694862  57.5302608
  52.0629807   4.8516995  58.1917818  42.7013817  15.5748842  63.4534572
  42.5846201  16.5194275  63.3513263  41.8806263  15.2722404  63.8420372
  52.5890351  10.2998978  54.2991165  53.4235955   9.8680177  54.1168640
  52.4274694  10.1280992  55.2268060  52.2436244   6.8031091  55.6647504
  52.1885047   6.6375363  54.7235949  51.6182299   7.5107124  55.8209694
  43.7268331  16.2277104  66.6690501  44.6295578  16.2600715  66.9856996
  43.5005701  15.2977555  66.6836837  45.4821933  14.9808091  63.3300579
  44.5317564  14.9809952  63.2164952  45.7854419  14.2340825  62.8136614
  61.2174627  20.8168629  64.3946342  61.8553036  20.6975377  63.6909682
  61.0995469  21.7649473  64.4534294  58.0264333  20.7696057  64.3307867
  57.6882844  20.6537122  63.4428401  58.8954101  20.3687222  64.3108873
  53.8851149  22.6231534  60.3204758  53.3216014  22.5321471  59.5521045
  53.7703544  21.8031438  60.8007250  51.4315580  24.1182725  63.1588978
  52.2236872  23.7773550  62.7435277  51.6712231  24.2277700  64.0791131
  59.4650707  26.2902501  55.6319222  58.8138687  26.8756582  55.2453236
  60.2595070  26.8208696  55.6914260  53.3906334  23.3791639  56.0306357
  54.1637210  22.8320626  55.8919233  53.7431733  24.2435888  56.2420818
  55.2291377  24.7068021  69.2373256  54.9381243  25.6113652  69.1219922
  55.8648361  24.7484549  69.9517326  56.1547584  22.0844869  65.8274616
  56.7511156  21.8600892  65.1131579  56.2122555  21.3429615  66.4300064
  55.7272612  19.5384305  53.6624807  55.9798133  19.0165826  52.9008270
  54.7897171  19.3750450  53.7651490  60.7715895  18.5420083  61.4699550
  61.5578984  18.1239506  61.1189967  61.0354599  19.4466175  61.6381198
  60.9425972  23.9792933  56.1688207  60.3071805  24.0527560  56.8809111
  60.6123379  24.5686532  55.4907286  55.4468901  21.4412411  55.8649182
  55.3305159  20.7657314  56.5330266  55.5571161  20.9544785  55.0481335
  57.7900442  20.9022558  59.5695871  57.4258649  20.3753179  60.2808792
  58.6467558  20.5121027  59.3962356  57.4305929  15.9312458  54.5657219
  57.5980331  16.7992694  54.9327690  57.2403098  16.0939739  53.6418509
  60.1881262  24.3929436  66.2323050  59.8881985  25.2954475  66.1238857
  59.8432322  24.1261620  67.0844203  53.6393744  20.8443233  62.2659754
  52.7144240  20.7119447  62.4737446  53.8878157  21.6237453  62.7629697
  57.4095150  18.3870115  55.5503886  57.2894775  18.8327166  56.3889366
  56.7147738  18.7355433  54.9917424  51.0002555  20.4876507  63.1003543
  51.1294936  20.7410986  64.0142955  50.3200006  21.0804215  62.7808198
  55.1702042  31.1573757  59.1994017  55.0926072  32.1081582  59.2782498
  54.5663685  30.8119629  59.8568944  63.1080216  18.8591588  56.3784220
  64.0198072  19.0918975  56.2031918  62.5989863  19.4428632  55.8159299
  61.7149798  23.8417407  63.7697802  61.0858661  24.0063121  63.0673870
  61.3275460  24.2559016  64.5408766  65.5939030  24.7771844  61.1242165
  64.9090068  25.1570746  60.5739199  65.6782879  25.3867171  61.8574113
  57.2677760  23.5791815  61.0347887  57.7316106  23.8579518  60.2452509
  57.0034558  22.6775259  60.8520977  54.1601841  23.1263296  63.9727650
  54.7303198  23.5550565  63.3345135  54.7509953  22.8445881  64.6711836
  56.2046646  19.7014967  57.8437452  56.9070689  20.1536011  58.3111378
  55.8727275  19.0598786  58.4717345  49.9471980  17.9598520  63.1454586
  49.1571034  18.2156048  62.6694696  50.4383227  18.7746858  63.2506626
  51.8986725  18.3243099  60.1038062  51.1017889  18.4361793  60.6221558
  51.6712318  18.6629751  59.2378953  57.7292393  24.8487802  68.0520577
  57.7936826  25.3108209  68.8878749  57.0203317  24.2185167  68.1802887
  48.2309683  18.2129010  65.5769576  48.4817721  19.0976020  65.8427152
  48.7669231  18.0333612  64.8044668  57.4440411  26.5155910  57.9199557
  57.3086086  27.3607445  58.3484405  57.9850223  26.7175187  57.1565491
  50.8969808  24.0331348  58.4927482  51.4094329  24.8274598  58.6433047
  51.5492521  23.3357638  58.4261084  52.7064693  27.1497104  60.5750235
  52.8831321  28.0715069  60.3871219  53.5021526  26.8355523  61.0044615
  51.9917049  19.1961736  70.4512399  51.8770565  18.2946993  70.7519498
  51.1361567  19.4425433  70.0997215  53.8296008  28.6675278  66.5760578
  54.3803433  28.5392341  65.8037572  52.9907484  28.9670167  66.2255471
  48.8618725  22.3620002  59.2687053  49.6993947  22.7717010  59.0520761
  49.0396993  21.4219444  59.2387247  60.7583157  20.0295083  54.9570886
  60.2429780  20.7999687  55.1959273  60.4860465  19.3560219  55.5803947
  58.3430268  14.8744783  60.0156124  57.4871864  14.4851634  59.8361763
  58.7557220  14.9536744  59.1555910  56.1172301  12.4929856  63.4213866
  56.9825297  12.2972665  63.0619755  56.1849809  12.2640208  64.3483222
  65.7317431  22.7827437  56.8924059  64.9546874  22.4438597  56.4479221
  66.4108912  22.7880061  56.2179024  60.5469460  17.9022175  56.7830667
  60.2419596  18.2168324  57.6340810  61.4999902  17.9803595  56.8258000
  58.9915892  24.0612398  58.4323621  58.4637254  23.3265158  58.1196858
  58.4903395  24.8387074  58.1863589  63.9708738  22.2561419  63.5490667
  63.3132413  22.9460680  63.6370796  64.7749137  22.6457851  63.8924654
  53.7234620  14.7232064  60.7930232  54.2978372  14.5007246  60.0603425
  54.3105602  14.7920759  61.5458834  62.7814197  20.6105791  61.5994609
  63.2946079  21.2435783  62.1016319  63.4315421  20.0106987  61.2337969
  54.0504207  16.7536525  54.8126118  53.2141519  17.0911212  55.1335392
  53.9108976  16.6185505  53.8753255  56.0257287  11.5973313  59.5205302
  55.3721700  11.2822330  58.8961917  55.9837762  10.9749054  60.2465125
  57.1368492  21.8792608  51.4358594  56.2295554  21.6481862  51.6349743
  57.6339524  21.0830228  51.6232575  60.0436571  30.5890116  54.3555280
  59.3698270  30.8921812  54.9640238  60.4302393  31.3919196  54.0060737
  59.2595028  18.0855247  63.8452949  58.3417589  18.3070194  63.6874638
  59.6755171  18.1601557  62.9864657  60.0430075  19.4846663  58.9755630
  60.7901894  19.9968060  58.6662752  60.3121665  19.1630715  59.8360023
  58.3156726  21.9805203  55.9582584  57.4067945  21.6964236  56.0555054
  58.3451809  22.4004282  55.0985891  63.5475993  25.5911793  59.7273752
  63.0938320  24.7502703  59.7838942  62.9169960  26.2273191  60.0648532
  62.4908913  16.5203779  60.9574419  61.7531669  16.0081165  61.2884662
  62.7435686  16.0804160  60.1457696  61.9908932  27.4288289  60.6623570
  62.2831907  27.9893347  59.9435935  62.5007553  27.7216850  61.4176729
  48.8844896  19.7010717  59.9397786  48.6869296  19.1080078  59.2148853
  48.3291560  19.3962928  60.6573725  56.8641620  19.5933824  62.0592379
  56.9190229  18.6407660  61.9834856  56.0532822  19.7493263  62.5433678
  58.0132813  23.5213947  53.2970663  57.5752243  22.8049806  52.8376300
  58.7543254  23.7490062  52.7355754  54.8033980  18.2110884  59.8182758
  53.9901845  18.5105054  60.2247950  55.2992974  17.8166572  60.5357240
  56.9542558  28.2068641  61.7517023  56.9118736  28.4329487  60.8225555
  57.8705256  27.9732015  61.9002824  66.1305928  21.7971144  59.3546981
  65.9923827  21.9872740  58.4268170  65.7742147  22.5590527  59.8115032
  54.2948054  15.7829239  65.4343993  54.9347434  15.6417998  64.7366957
  53.4625585  15.4963753  65.0582595  55.0708358  25.0831670  61.5478986
  55.8648957  24.5881990  61.3461561  54.3600051  24.5549533  61.1846691
  59.8903203  27.4649765  65.8991353  59.9440225  28.0340701  66.6669069
  59.0217984  27.6351650  65.5345390  51.3791122  19.2274751  57.6238738
  50.4488710  19.1659207  57.8408700  51.4748594  18.7050704  56.8275380
  51.2976671  15.7529564  60.2116980  51.5583488  16.6674897  60.1026140
  52.1193843  15.2854007  60.3613593  52.7701596  17.1667321  67.3815805
  53.4424650  16.9584683  66.7328453  51.9431383  16.9689407  66.9421037
  58.8491303  21.6310027  67.4578285  59.7783363  21.7821187  67.2847252
  58.4282333  21.7194048  66.6026932  57.6479634  25.6560692  65.2276823
  57.5090720  25.2879476  66.1002761  56.8594231  26.1708331  65.0560781
  58.2427786  30.7569788  56.5702359  58.4179542  30.2857831  57.3847982
  57.5560574  31.3835554  56.7983620  59.1984849  25.0342294  62.6165661
  58.8634682  24.9943064  63.5123310  58.6988795  24.3687010  62.1436071
  53.1729093  20.4409924  68.1418242  53.0348891  19.7090163  68.7429781
  54.0834017  20.3518824  67.8602429  62.1344041  22.3798329  52.8902720
  61.5173212  21.6545157  52.7935773  61.6660530  23.1407689  52.5469794
  55.8011394  20.1529884  67.6301921  56.5111013  19.5123076  67.5888540
  55.7580702  20.4042778  68.5528102  52.8088872  33.9059151  63.3442219
  53.0485470  34.5377675  64.0221238  51.9658068  33.5547191  63.6307579
  53.9242587  16.5983753  52.0124024  53.0472053  16.4772554  51.6486271
  54.4000340  15.8069831  51.7602913  45.4444727  21.3860913  62.1065532
  46.1315767  21.0722643  61.5186547  45.2892856  22.2902277  61.8332783
  50.2479449  16.2751109  66.5350555  50.1637638  15.6676779  65.8000965
  49.4262156  16.7660127  66.5360052  57.3216733  29.7138273  65.7483723
  57.2486905  30.5193245  66.2603028  56.8794127  29.9130239  64.9231745
  57.1106513  28.9510043  59.2586545  56.3274035  29.4931723  59.3524769
  57.8099258  29.4684023  59.6580786  60.4203163  14.7604673  61.9020750
  60.9171863  14.0074635  61.5821821  59.6490145  14.7968989  61.3363960
  59.7815417  29.6125107  67.9041882  60.4943389  30.2472572  67.8317784
  59.2905446  29.7088973  67.0881884  61.5032944  23.5176360  59.4759174
  60.5689223  23.6377822  59.3063878  61.6809612  22.6148827  59.2119184
  57.0038132  16.9022056  61.6292435  56.6335919  16.3493096  62.3173341
  57.4997224  16.2980189  61.0767435  64.8905495  19.3593679  60.0109208
  65.3565947  20.1921671  59.9369511  65.3412996  18.8938661  60.7154466
  54.8327330  27.3619551  68.7247453  55.5336790  27.9956034  68.8776847
  54.3622445  27.7034282  67.9643092  62.9581726  25.7037500  57.0095360
  63.2341570  25.5894095  57.9189234  62.0886225  25.3054985  56.9707533
  59.5935790  29.9523851  60.6528174  59.7758185  29.1345507  61.1155926
  60.4168776  30.1691544  60.2153064  59.9277956  28.8792036  57.9143222
  60.4565722  28.3684491  57.3013384  60.1906175  28.5634567  58.7788755
  50.4295049  26.8955906  65.6578556  51.0148485  26.1499594  65.7906460
  50.2319887  27.2059862  66.5415219  53.2833704  29.9307153  60.6740998
  52.6144079  30.4153281  60.1905038  53.1446573  30.1776374  61.5884377
  45.0212703  19.4661506  64.3782999  45.0596803  18.9325097  65.1720117
  44.5152996  18.9396711  63.7593976  57.4238972  31.9650897  67.2723656
  57.9757280  32.1282518  68.0372742  57.7645166  32.5555334  66.6003681
  52.4003466  14.3126046  67.8745541  52.4644792  15.1740877  67.4622939
  52.3370586  13.7000048  67.1417900  48.6521281  18.1925608  57.4536930
  48.9474722  17.2836287  57.4003984  47.7509317  18.1713348  57.1317932
  60.5607360  29.9132872  64.2587339  60.4358499  29.1122612  63.7498284
  61.2186451  30.4079066  63.7701308  52.1815528  16.2681605  63.4364479
  51.4602114  16.8817572  63.2971952  52.9708784  16.8039370  63.3581125
  62.6242268  27.7141892  65.8866889  61.6772604  27.5947243  65.8145215
  62.9725041  26.8264390  65.9693150  50.3809122  15.8739706  57.5776255
  50.0521829  14.9937085  57.3951361  50.7348493  15.8187374  58.4652645
  59.6288701  27.5094608  62.0871241  59.4813664  26.5811316  62.2678811
  60.4542195  27.5314699  61.6028316  53.4950946  16.1612676  57.9451733
  53.8347018  16.6898597  57.2230341  53.9423066  16.4993082  58.7210300
  63.2322823  28.3323167  63.1736114  64.1569371  28.1266029  63.0360565
  63.0638127  28.0839568  64.0825455  55.4819093  14.6587297  56.1445026
  56.2027455  15.0368550  55.6408743  54.8584397  15.3776174  56.2480004
  59.6250216  15.3632446  57.0803358  59.8413830  16.2457084  56.7792186
  59.1444283  14.9718660  56.3509000  54.3649437  18.3218159  63.6574103
  54.2194018  18.6358462  64.5498384  53.8874641  18.9403060  63.1045001
  56.2245820  15.3120707  63.7054992  56.2107389  14.4161801  63.3687290
  56.9418248  15.3191371  64.3393278  63.0218139  28.8508835  58.5298205
  63.1955017  28.2855257  57.7772057  63.5147031  29.6509730  58.3477695
  48.8395099  20.8623504  66.5961764  48.2948567  21.6383312  66.7282038
  49.7174449  21.2094308  66.4380885  55.6282716  14.1935088  58.9742562
  55.7498627  13.2651734  59.1733450  55.3384758  14.2073774  58.0620878
  58.4973906  11.8789998  62.1109282  58.5195603  11.9429331  61.1561262
  58.9141965  11.0394507  62.3049788  64.0093312  28.1675599  55.6295103
  64.7044216  28.7882292  55.8482418  64.3516462  27.3170950  55.9047481
  49.6261121  19.9893400  69.4891921  48.8842857  20.1376035  70.0756551
  49.3053865  20.2501666  68.6258670  65.9084735  25.6175305  57.1582434
  66.4336059  25.9562577  56.4331754  65.8207088  24.6822320  56.9745569
  57.5704784  29.5309378  69.2872311  57.8791910  29.2858525  70.1595010
  58.3680266  29.7356017  68.7991181  57.5925396  31.6847288  61.5177687
  57.1530386  31.1923667  62.2110544  58.3433513  31.1420256  61.2769763
  50.0717735  27.8758829  61.5202315  50.8975755  27.5762601  61.1400959
  49.7211787  27.1066451  61.9692104  55.0399268  27.2285297  63.5899989
  54.4179277  26.5656002  63.2902217  55.7104135  27.2546429  62.9073637
  48.2726340  25.7945155  62.4791249  47.4358248  25.3667330  62.2975250
  48.2449985  25.9877599  63.4162040  54.6012775  25.7789220  57.0658449
  54.7500895  26.4624685  56.4125122  55.4079218  25.7594310  57.5807905
  52.3565408  21.8054398  58.0719518  52.1111450  20.9016728  58.2699729
  52.5261322  21.8071548  57.1298996  51.6261055  17.5382756  55.5705680
  50.9330300  17.6127111  54.9145716  51.3812807  16.7743099  56.0927197
  58.1008180  28.2737351  54.5370197  57.5282147  28.8927538  54.0840669
  58.6740974  28.8236712  55.0710119  61.3205440  28.5574501  55.6678779
  62.2536113  28.4920063  55.8711655  61.2328653  29.3930768  55.2093312
  63.9493457  27.8740371  52.6282727  63.8707088  27.5400235  53.5218485
  64.7703124  28.3662139  52.6274199  58.4854979  19.6098164  51.8786249
  59.4314084  19.4804372  51.9474667  58.1069224  18.8712825  52.3555678
  56.6697896  17.5348140  51.8141135  55.7629351  17.2381253  51.8903848
  56.9473877  17.2377958  50.9475421  47.5875836  18.8554503  62.2640181
  47.2678621  18.0019812  61.9714555  47.0409265  19.0703081  63.0198148
  51.3655744  21.5716944  65.9809688  51.5841754  22.5034052  65.9997721
  51.7781518  21.2124919  66.7664491  58.2859962  12.0785030  57.9685376
  57.4760690  11.7332115  58.3440622  58.9744379  11.7692573  58.5572987
  60.2150510  11.1563076  59.5909673  60.7681549  11.5758530  60.2499696
  60.4520596  10.2298825  59.6332629  55.4396681  14.3935075  51.9553114
  56.3015845  14.7189973  52.2148931  55.6247025  13.6066571  51.4426180
  47.4564096  22.4757415  64.2333303  46.7627568  22.0611368  63.7203257
  48.2037087  22.5177951  63.6366722  63.5929317  13.2663602  59.0988337
  63.0127986  13.9248406  58.7166389  63.3265250  12.4440946  58.6875754
  49.3700839  22.4075669  62.1099317  49.3471527  22.5063356  61.1581201
  49.6801475  23.2540819  62.4316484  52.0288217  24.4651824  66.2245932
  52.9831470  24.4335766  66.1575863  51.8300740  24.0042447  67.0396158
  52.6187599  23.0352940  68.7916730  53.4380488  23.5297018  68.8151567
  52.8924407  22.1184908  68.7634297  62.3754195  15.4263692  58.1544685
  61.4880050  15.7113343  57.9364880  62.7908184  15.2657455  57.3071962
  50.3838446  30.0071443  63.2416130  50.2492913  29.2471844  62.6754128
  49.9670508  30.7312343  62.7744919  61.5197409  25.1908367  52.2492705
  62.2233259  25.3958369  52.8650361  60.7960057  25.7585129  52.5141789
  62.3495219  20.9418228  58.3694975  62.2930420  21.3986779  57.5302608
  62.9023561  20.1808913  58.1917818  53.5407571  30.9040760  63.4534572
  53.4239956  31.8486193  63.3513263  52.7200018  30.6014322  63.8420372
  63.4284106  25.6290896  54.2991165  64.2629710  25.1972094  54.1168640
  63.2668449  25.4572910  55.2268060  63.0829998  22.1323009  55.6647504
  63.0278802  21.9667281  54.7235949  62.4576053  22.8399042  55.8209694
  47.8722513  17.3691074  69.4908927  48.5181377  16.8590028  69.9796152
  47.6639664  18.1059755  70.0652352  56.3926124  11.6331118  55.2432823
  56.3804793  12.5772958  55.4001094  57.2849545  11.4501264  54.9492284
  54.5662086  31.5569022  66.6690501  55.4689332  31.5892632  66.9856996
  54.3399456  30.6269473  66.6836837  56.3215688  30.3100009  63.3300579
  55.3711319  30.3101870  63.2164952  56.6248174  29.5632743  62.8136614
  68.8658087  36.0987975  64.3307867  68.5276599  35.9829040  63.4428401
  69.7347856  35.6979140  64.3108873  64.7244903  37.9523451  60.3204758
  64.1609768  37.8613388  59.5521045  64.6097298  37.1323356  60.8007250
  62.2709335  39.4474643  63.1588978  63.0630627  39.1065468  62.7435277
  62.5105985  39.5569618  64.0791131  70.3044462  41.6194419  55.6319222
  69.6532441  42.2048500  55.2453236  71.0988825  42.1500614  55.6914260
  64.2300089  38.7083556  56.0306357  65.0030965  38.1612543  55.8919233
  64.5825488  39.5727806  56.2420818  66.9941338  37.4136787  65.8274616
  67.5904911  37.1892810  65.1131579  67.0516310  36.6721533  66.4300064
  66.5666367  34.8676222  53.6624807  66.8191887  34.3457744  52.9008270
  65.6290926  34.7042368  53.7651490  71.6109650  33.8712001  61.4699550
  72.3972739  33.4531424  61.1189967  71.8748354  34.7758093  61.6381198
  71.7819727  39.3084851  56.1688207  71.1465560  39.3819478  56.8809111
  71.4517133  39.8978450  55.4907286  66.2862655  36.7704328  55.8649182
  66.1698914  36.0949232  56.5330266  66.3964915  36.2836702  55.0481335
  68.6294196  36.2314475  59.5695871  68.2652404  35.7045096  60.2808792
  69.4861312  35.8412945  59.3962356  68.2699683  31.2604375  54.5657219
  68.4374086  32.1284612  54.9327690  68.0796852  31.4231657  53.6418509
  64.4787498  36.1735151  62.2659754  63.5537994  36.0411365  62.4737446
  64.7271911  36.9529370  62.7629697  68.2488904  33.7162033  55.5503886
  68.1288529  34.1619083  56.3889366  67.5541493  34.0647350  54.9917424
  61.8396309  35.8168424  63.1003543  61.9688690  36.0702903  64.0142955
  61.1593760  36.4096132  62.7808198  66.0095796  46.4865674  59.1994017
  65.9319826  47.4373500  59.2782498  65.4057440  46.1411547  59.8568944
  68.1071515  38.9083732  61.0347887  68.5709860  39.1871435  60.2452509
  67.8428313  38.0067177  60.8520977  64.9995596  38.4555214  63.9727650
  65.5696953  38.8842482  63.3345135  65.5903707  38.1737799  64.6711836
  67.0440401  35.0306885  57.8437452  67.7464444  35.4827928  58.3111378
  66.7121029  34.3890704  58.4717345  60.7865735  33.2890437  63.1454586
  59.9964789  33.5447966  62.6694696  61.2776982  34.1038775  63.2506626
  62.7380480  33.6535017  60.1038062  61.9411643  33.7653711  60.6221558
  62.5106072  33.9921669  59.2378953  59.0703438  33.5420928  65.5769576
  59.3211476  34.4267938  65.8427152  59.6062986  33.3625529  64.8044668
  68.2834165  41.8447827  57.9199557  68.1479840  42.6899363  58.3484405
  68.8243978  42.0467105  57.1565491  61.7363563  39.3623265  58.4927482
  62.2488083  40.1566516  58.6433047  62.3886275  38.6649556  58.4261084
  63.5458447  42.4789022  60.5750235  63.7225076  43.4006986  60.3871219
  64.3415281  42.1647441  61.0044615  62.8310804  34.5253654  70.4512399
  62.7164319  33.6238911  70.7519498  61.9755322  34.7717350  70.0997215
  59.7012479  37.6911920  59.2687053  60.5387701  38.1008928  59.0520761
  59.8790747  36.7511362  59.2387247  71.5976912  35.3587000  54.9570886
  71.0823535  36.1291605  55.1959273  71.3254220  34.6852137  55.5803947
  69.1824023  30.2036701  60.0156124  68.3265619  29.8143552  59.8361763
  69.5950974  30.2828662  59.1555910  66.9566055  27.8221774  63.4213866
  67.8219052  27.6264583  63.0619755  67.0243564  27.5932126  64.3483222
  71.3863215  33.2314092  56.7830667  71.0813350  33.5460242  57.6340810
  72.3393657  33.3095512  56.8258000  69.8309647  39.3904316  58.4323621
  69.3031008  38.6557075  58.1196858  69.3297149  40.1678992  58.1863589
  64.5628374  30.0523982  60.7930232  65.1372126  29.8299164  60.0603425
  65.1499357  30.1212677  61.5458834  64.8897961  32.0828443  54.8126118
  64.0535274  32.4203130  55.1335392  64.7502731  31.9477423  53.8753255
  66.8651042  26.9265231  59.5205302  66.2115454  26.6114248  58.8961917
  66.8231516  26.3040971  60.2465125  67.9762247  37.2084526  51.4358594
  67.0689308  36.9773780  51.6349743  68.4733279  36.4122145  51.6232575
  70.8830326  45.9182033  54.3555280  70.2092024  46.2213730  54.9640238
  71.2696148  46.7211114  54.0060737  70.0988782  33.4147165  63.8452949
  69.1811344  33.6362112  63.6874638  70.5148926  33.4893475  62.9864657
  70.8823830  34.8138580  58.9755630  71.6295649  35.3259977  58.6662752
  71.1515420  34.4922633  59.8360023  69.1550480  37.3097121  55.9582584
  68.2461699  37.0256154  56.0555054  69.1845564  37.7296199  55.0985891
  59.7238651  35.0302635  59.9397786  59.5263050  34.4371996  59.2148853
  59.1685315  34.7254845  60.6573725  67.7035374  34.9225742  62.0592379
  67.7583984  33.9699578  61.9834856  66.8926576  35.0785181  62.5433678
  68.8526568  38.8505865  53.2970663  68.4145998  38.1341724  52.8376300
  69.5937009  39.0781979  52.7355754  65.6427734  33.5402801  59.8182758
  64.8295600  33.8396972  60.2247950  66.1386728  33.1458490  60.5357240
  67.7936312  43.5360558  61.7517023  67.7512491  43.7621405  60.8225555
  68.7099011  43.3023933  61.9002824  65.1341809  31.1121157  65.4343993
  65.7741188  30.9709916  64.7366957  64.3019339  30.8255670  65.0582595
  65.9102113  40.4123587  61.5478986  66.7042711  39.9173907  61.3461561
  65.1993805  39.8841450  61.1846691  62.2184876  34.5566669  57.6238738
  61.2882464  34.4951124  57.8408700  62.3142348  34.0342622  56.8275380
  62.1370425  31.0821482  60.2116980  62.3977243  31.9966815  60.1026140
  62.9587598  30.6145924  60.3613593  63.6095351  32.4959239  67.3815805
  64.2818404  32.2876601  66.7328453  62.7825137  32.2981325  66.9421037
  69.0821541  46.0861706  56.5702359  69.2573296  45.6149749  57.3847982
  68.3954329  46.7127472  56.7983620  70.0378604  40.3634212  62.6165661
  69.7028437  40.3234982  63.5123310  69.5382550  39.6978928  62.1436071
  64.0122848  35.7701842  68.1418242  63.8742646  35.0382081  68.7429781
  64.9227771  35.6810742  67.8602429  66.6405149  35.4821801  67.6301921
  67.3504767  34.8414993  67.5888540  66.5974457  35.7334696  68.5528102
  64.7636341  31.9275671  52.0124024  63.8865808  31.8064471  51.6486271
  65.2394095  31.1361749  51.7602913  56.2838482  36.7152830  62.1065532
  56.9709521  36.4014560  61.5186547  56.1286610  37.6194195  61.8332783
  61.0873204  31.6043027  66.5350555  61.0031393  30.9968696  65.8000965
  60.2655910  32.0952045  66.5360052  67.9500268  44.2801961  59.2586545
  67.1667789  44.8223641  59.3524769  68.6493013  44.7975941  59.6580786
  71.2596918  30.0896590  61.9020750  71.7565617  29.3366553  61.5821821
  70.4883899  30.1260907  61.3363960  72.3426698  38.8468278  59.4759174
  71.4082977  38.9669740  59.3063878  72.5203367  37.9440744  59.2119184
  67.8431886  32.2313973  61.6292435  67.4729674  31.6785014  62.3173341
  68.3390979  31.6272107  61.0767435  70.4329545  45.2815769  60.6528174
  70.6151939  44.4637425  61.1155926  71.2562531  45.4983461  60.2153064
  70.7671710  44.2083954  57.9143222  71.2959477  43.6976409  57.3013384
  71.0299930  43.8926484  58.7788755  61.2688803  42.2247823  65.6578556
  61.8542240  41.4791511  65.7906460  61.0713641  42.5351780  66.5415219
  64.1227458  45.2599071  60.6740998  63.4537834  45.7445198  60.1905038
  63.9840328  45.5068291  61.5884377  55.8606458  34.7953424  64.3782999
  55.8990557  34.2617014  65.1720117  55.3546751  34.2688629  63.7593976
  63.2397220  29.6417964  67.8745541  63.3038547  30.5032795  67.4622939
  63.1764340  29.0291966  67.1417900  59.4915035  33.5217526  57.4536930
  59.7868476  32.6128204  57.4003984  58.5903071  33.5005265  57.1317932
  63.0209282  31.5973522  63.4364479  62.2995868  32.2109490  63.2971952
  63.8102538  32.1331287  63.3581125  61.2202877  31.2031623  57.5776255
  60.8915583  30.3229002  57.3951361  61.5742248  31.1479292  58.4652645
  70.4682456  42.8386526  62.0871241  70.3207418  41.9103234  62.2678811
  71.2935949  42.8606617  61.6028316  64.3344700  31.4904593  57.9451733
  64.6740773  32.0190515  57.2230341  64.7816821  31.8284999  58.7210300
  66.3212847  29.9879215  56.1445026  67.0421210  30.3660468  55.6408743
  65.6978151  30.7068092  56.2480004  70.4643970  30.6924364  57.0803358
  70.6807584  31.5749002  56.7792186  69.9838037  30.3010577  56.3509000
  65.2043191  33.6510077  63.6574103  65.0587772  33.9650380  64.5498384
  64.7268395  34.2694977  63.1045001  67.0639574  30.6412625  63.7054992
  67.0501143  29.7453718  63.3687290  67.7812002  30.6483289  64.3393278
  59.6788854  36.1915421  66.5961764  59.1342322  36.9675229  66.7282038
  60.5568204  36.5386226  66.4380885  66.4676470  29.5227005  58.9742562
  66.5892381  28.5943651  59.1733450  66.1778513  29.5365691  58.0620878
  69.3367661  27.2081916  62.1109282  69.3589358  27.2721249  61.1561262
  69.7535720  26.3686424  62.3049788  60.4654876  35.3185318  69.4891921
  59.7236612  35.4667953  70.0756551  60.1447620  35.5793583  68.6258670
  60.9111489  43.2050746  61.5202315  61.7369509  42.9054518  61.1400959
  60.5605541  42.4358369  61.9692104  65.8793022  42.5577215  63.5899989
  65.2573032  41.8947920  63.2902217  66.5497889  42.5838347  62.9073637
  59.1120094  41.1237073  62.4791249  58.2752003  40.6959247  62.2975250
  59.0843740  41.3169516  63.4162040  65.4406529  41.1081138  57.0658449
  65.5894650  41.7916602  56.4125122  66.2472973  41.0886228  57.5807905
  63.1959162  37.1346316  58.0719518  62.9505204  36.2308646  58.2699729
  63.3655077  37.1363466  57.1298996  62.4654810  32.8674673  55.5705680
  61.7724055  32.9419028  54.9145716  62.2206562  32.1035017  56.0927197
  68.9401935  43.6029268  54.5370197  68.3675902  44.2219456  54.0840669
  69.5134728  44.1528630  55.0710119  69.3248733  34.9390081  51.8786249
  70.2707838  34.8096289  51.9474667  68.9462978  34.2004743  52.3555678
  67.5091650  32.8640058  51.8141135  66.6023106  32.5673170  51.8903848
  67.7867631  32.5669876  50.9475421  58.4269591  34.1846421  62.2640181
  58.1072375  33.3311729  61.9714555  57.8803019  34.3994999  63.0198148
  62.2049498  36.9008862  65.9809688  62.4235508  37.8325970  65.9997721
  62.6175272  36.5416836  66.7664491  69.1253716  27.4076947  57.9685376
  68.3154444  27.0624032  58.3440622  69.8138133  27.0984491  58.5572987
  71.0544264  26.4854994  59.5909673  71.6075303  26.9050448  60.2499696
  71.2914351  25.5590742  59.6332629  66.2790435  29.7226993  51.9553114
  67.1409599  30.0481891  52.2148931  66.4640779  28.9358489  51.4426180
  58.2957851  37.8049332  64.2333303  57.6021322  37.3903285  63.7203257
  59.0430842  37.8469869  63.6366722  60.2094593  37.7367586  62.1099317
  60.1865281  37.8355274  61.1581201  60.5195230  38.5832737  62.4316484
  62.8681971  39.7943741  66.2245932  63.8225225  39.7627684  66.1575863
  62.6694495  39.3334365  67.0396158  61.2232200  45.3363361  63.2416130
  61.0886668  44.5763762  62.6754128  60.8064262  46.0604261  62.7744919
  58.7116268  32.6982991  69.4908927  59.3575131  32.1881945  69.9796152
  58.5033419  33.4351673  70.0652352  67.2319878  26.9623036  55.2432823
  67.2198548  27.9064876  55.4001094  68.1243300  26.7793181  54.9492284
  70.3308790  48.8509443  57.4536930  70.6262231  47.9420122  57.4003984
  69.4296826  48.8297183  57.1317932  55.1702043   8.1635879  45.9239324
  55.0926073   9.1143704  46.0027805  54.5663687   7.8181752  46.5814250
  53.8296010   5.6737400  53.3005884  54.3803435   5.5454464  52.5282878
  52.9907485   5.9732289  52.9500777  60.0436572   7.5952238  41.0800587
  59.3698271   7.8983935  41.6885545  60.4302394   8.3981319  40.7306044
  58.2427788   7.7631911  43.2947666  58.4179543   7.2919954  44.1093289
  57.5560576   8.3897677  43.5228927  52.8088873  10.9121273  50.0687526
  53.0485471  11.5439798  50.7466545  51.9658069  10.5609313  50.3552885
  57.3216735   6.7200396  52.4729030  57.2486906   7.5255367  52.9848335
  56.8794128   6.9192362  51.6477051  57.1106514   5.9572166  45.9831852
  56.3274036   6.4993846  46.0770076  57.8099259   6.4746145  46.3826093
  59.7815418   6.6187230  54.6287189  60.4943390   7.2534695  54.5563090
  59.2905447   6.7151096  53.8127191  53.2833705   6.9369276  47.3986305
  52.6144080   7.4215403  46.9150345  53.1446575   7.1838496  48.3129683
  57.4238974   8.9713019  53.9968963  57.9757282   9.1344641  54.7618048
  57.7645167   9.5617457  53.3248988  57.5704785   6.5371501  56.0117617
  57.8791911   6.2920648  56.8840317  58.3680267   6.7418139  55.5236488
  57.5925397   8.6909410  48.2422994  57.1530387   8.1985789  48.9355851
  58.3433514   8.1482378  48.0015069  50.0717736   4.8820951  48.2447622
  50.8975756   4.5824723  47.8646266  49.7211788   4.1128574  48.6937411
  48.2726341   2.8007278  49.2036556  47.4358249   2.3729452  49.0220557
  48.2449986   2.9939721  50.1407347  50.3838447   7.0133566  49.9661436
  50.2492915   6.2533967  49.3999434  49.9670509   7.7374466  49.4990225
  53.5407573   7.9102883  50.1779879  53.4239957   8.8548315  50.0758569
  52.7200019   7.6076444  50.5665678  54.5662087   8.5631145  53.3935807
  55.4689333   8.5954755  53.7102302  54.3399457   7.6331596  53.4082143
  56.3215689   7.3162131  50.0545886  55.3711320   7.3163993  49.9410258
  56.6248175   6.5694866  49.5381921  68.8658089  13.1050098  51.0553173
  68.5276600  12.9891162  50.1673708  69.7347857  12.7041263  51.0354179
  64.7244904  14.9585574  47.0450064  64.1609769  14.8675511  46.2766352
  64.6097299  14.1385479  47.5252557  62.2709336  16.4536766  49.8834285
  63.0630628  16.1127590  49.4680584  62.5105986  16.5631741  50.8036438
  70.3044463  18.6256542  42.3564529  69.6532443  19.2110622  41.9698543
  71.0988826  19.1562737  42.4159567  64.2300090  15.7145679  42.7551663
  65.0030966  15.1674666  42.6164539  64.5825489  16.5789928  42.9666125
  66.0685133  17.0422061  55.9618563  65.7774999  17.9467692  55.8465229
  66.7042117  17.0838589  56.6762632  66.9941340  14.4198910  52.5519922
  67.5904912  14.1954932  51.8376885  67.0516311  13.6783655  53.1545370
  66.5666368  11.8738345  40.3870113  66.8191889  11.3519866  39.6253576
  65.6290927  11.7104490  40.4896797  71.7819728  16.3146974  42.8933513
  71.1465561  16.3881600  43.6054418  71.4517135  16.9040573  42.2152593
  66.2862657  13.7766451  42.5894488  66.1698915  13.1011354  43.2575573
  66.3964917  13.2898825  41.7726641  68.6294198  13.2376598  46.2941178
  68.2652405  12.7107219  47.0054099  69.4861314  12.8475067  46.1207663
  71.0275018  16.7283477  52.9568356  70.7275741  17.6308516  52.8484164
  70.6826077  16.4615660  53.8089509  64.4787499  13.1797274  48.9905061
  63.5537996  13.0473488  49.1982753  64.7271912  13.9591493  49.4875003
  68.2488905  10.7224155  42.2749193  68.1288531  11.1681206  43.1134673
  67.5541494  11.0709473  41.7162731  61.8396310  12.8230547  49.8248850
  61.9688691  13.0765026  50.7388262  61.1593762  13.4158255  49.5053505
  66.0095798  23.4927797  45.9239324  65.9319827  24.4435622  46.0027805
  65.4057441  23.1473670  46.5814250  68.1071516  15.9145855  47.7593193
  68.5709861  16.1933558  46.9697816  67.8428314  15.0129300  47.5766284
  64.9995597  15.4617337  50.6972957  65.5696954  15.8904605  50.0590441
  65.5903709  15.1799921  51.3957142  67.0440402  12.0369007  44.5682759
  67.7464445  12.4890051  45.0356685  66.7121030  11.3952826  45.1962652
  60.7865736  10.2952560  49.8699892  59.9964790  10.5510089  49.3940003
  61.2776983  11.1100898  49.9751933  62.7380481  10.6597139  46.8283369
  61.9411644  10.7715834  47.3466865  62.5106073  10.9983792  45.9624259
  68.5686149  17.1841843  54.7765883  68.6330581  17.6462250  55.6124055
  67.8597073  16.5539207  54.9048193  59.0703439  10.5483050  52.3014883
  59.3211477  11.4330060  52.5672459  59.6062987  10.3687652  51.5289975
  68.2834166  18.8509950  44.6444864  68.1479841  19.6961486  45.0729712
  68.8243979  19.0529228  43.8810798  61.7363564  16.3685388  45.2172789
  62.2488084  17.1628638  45.3678354  62.3886277  15.6711678  45.1506390
  63.5458449  19.4851144  47.2995542  63.7225077  20.4069109  47.1116526
  64.3415282  19.1709564  47.7289922  62.8310805  11.5315776  57.1757705
  62.7164320  10.6301033  57.4764804  61.9755323  11.7779473  56.8242522
  64.6689764  21.0029318  53.3005884  65.2197189  20.8746381  52.5282878
  63.8301240  21.3024207  52.9500777  59.7012481  14.6974042  45.9932359
  60.5387703  15.1071051  45.7766067  59.8790748  13.7573485  45.9632553
  71.5976913  12.3649123  41.6816192  71.0823536  13.1353728  41.9204580
  71.3254221  11.6914259  42.3049254  69.8309648  16.3966438  45.1568928
  69.3031009  15.6619198  44.8442165  69.3297151  17.1741115  44.9108896
  64.8897963   9.0890566  41.5371424  64.0535275   9.4265252  41.8580699
  64.7502732   8.9539546  40.5998561  67.9762248  14.2146649  38.1603901
  67.0689310  13.9835902  38.3595050  68.4733280  13.4184268  38.3477882
  70.8830327  22.9244156  41.0800587  70.2092026  23.2275853  41.6885545
  71.2696149  23.7273236  40.7306044  70.0988783  10.4209287  50.5698256
  69.1811345  10.6424234  50.4119944  70.5148927  10.4955598  49.7109963
  70.8823831  11.8200703  45.7000936  71.6295650  12.3322100  45.3908058
  71.1515421  11.4984756  46.5605330  69.1550481  14.3159244  42.6827891
  68.2461701  14.0318276  42.7800360  69.1845565  14.7358322  41.8231198
  59.7238652  12.0364758  46.6643093  59.5263052  11.4434118  45.9394159
  59.1685316  11.7316968  47.3819032  67.7035375  11.9287864  48.7837686
  67.7583985  10.9761701  48.7080163  66.8926577  12.0847303  49.2678984
  68.8526569  15.8567987  40.0215969  68.4145999  15.1403846  39.5621607
  69.5937010  16.0844102  39.4601061  65.6427735  10.5464924  46.5428065
  64.8295601  10.8459094  46.9493257  66.1386730  10.1520613  47.2602547
  67.7936313  20.5422681  48.4762330  67.7512492  20.7683527  47.5470862
  68.7099012  20.3086055  48.6248131  65.9102114  17.4185710  48.2724292
  66.7042713  16.9236030  48.0706867  65.1993806  16.8903573  47.9091998
  70.7296959  19.8003805  52.6236660  70.7833981  20.3694742  53.3914376
  69.8611740  19.9705690  52.2590697  62.2184878  11.5628792  44.3484045
  61.2882466  11.5013247  44.5654007  62.3142350  11.0404744  43.5520686
  62.1370427   8.0883604  46.9362287  62.3977244   9.0028938  46.8271447
  62.9587599   7.6208047  47.0858899  63.6095352   9.5021362  54.1061111
  64.2818405   9.2938724  53.4573760  62.7825138   9.3043448  53.6666343
  69.6885058  13.9664067  54.1823592  70.6177118  14.1175227  54.0092559
  69.2676088  14.0548088  53.3272238  68.4873390  17.9914732  51.9522129
  68.3484476  17.6233516  52.8248068  67.6987986  18.5062371  51.7806087
  69.0821542  23.0923828  43.2947666  69.2573298  22.6211871  44.1093289
  68.3954330  23.7189594  43.5228927  70.0378605  17.3696335  49.3410967
  69.7028438  17.3297104  50.2368617  69.5382551  16.7041050  48.8681377
  64.0122849  12.7763965  54.8663548  63.8742647  12.0444203  55.4675087
  64.9227773  12.6872865  54.5847736  66.6405150  12.4883924  54.3547228
  67.3504768  11.8477116  54.3133846  66.5974458  12.7396819  55.2773409
  63.6482627  26.2413191  50.0687526  63.8879226  26.8731715  50.7466545
  62.8051824  25.8901231  50.3552885  56.2838483  13.7214953  48.8310838
  56.9709523  13.4076683  48.2431854  56.1286612  14.6256318  48.5578090
  61.0873205   8.6105149  53.2595862  61.0031394   8.0030819  52.5246272
  60.2655911   9.1014168  53.2605358  68.1610489  22.0492313  52.4729030
  68.0880661  22.8547285  52.9848335  67.7187882  22.2484279  51.6477051
  67.9500269  21.2864084  45.9831852  67.1667791  21.8285764  46.0770076
  68.6493014  21.8038063  46.3826093  70.6209173  21.9479148  54.6287189
  71.3337145  22.5826612  54.5563090  70.1299201  22.0443014  53.8127191
  72.3426700  15.8530400  46.2004480  71.4082978  15.9731863  46.0309185
  72.5203368  14.9502867  45.9364490  65.6721086  19.6973591  55.4492760
  66.3730546  20.3310074  55.6022154  65.2016201  20.0388323  54.6888399
  70.4329546  22.2877892  47.3773480  70.6151941  21.4699548  47.8401233
  71.2562532  22.5045584  46.9398370  70.7671712  21.2146077  44.6388529
  71.2959478  20.7038531  44.0258691  71.0299931  20.8988607  45.5034062
  61.2688804  19.2309946  52.3823862  61.8542241  18.4853634  52.5151766
  61.0713643  19.5413903  53.2660526  64.1227459  22.2661193  47.3986305
  63.4537835  22.7507321  46.9150345  63.9840329  22.5130414  48.3129683
  55.8606459  11.8015546  51.1028305  55.8990559  11.2679137  51.8965423
  55.3546752  11.2750752  50.4839283  68.2632728  24.3004937  53.9968963
  68.8151036  24.4636558  54.7618048  68.6038922  24.8909375  53.3248988
  59.4915037  10.5279648  44.1782237  59.7868478   9.6190327  44.1249290
  58.5903072  10.5067388  43.8563239  71.4001115  22.2486912  50.9832645
  71.2752255  21.4476652  50.4743591  72.0580206  22.7433106  50.4946615
  63.0209284   8.6035645  50.1609785  62.2995869   9.2171613  50.0217259
  63.8102539   9.1393410  50.0826431  61.2202878   8.2093746  44.3021562
  60.8915584   7.3291125  44.1196668  61.5742249   8.1541415  45.1897951
  70.4682457  19.8448649  48.8116547  70.3207419  18.9165356  48.9924118
  71.2935951  19.8668739  48.3273623  64.3344701   8.4966716  44.6697040
  64.6740774   9.0252637  43.9475648  64.7816822   8.8347122  45.4455606
  65.2043193  10.6572200  50.3819409  65.0587773  10.9712503  51.2743691
  64.7268396  11.2757100  49.8290308  59.6788855  13.1977544  53.3207070
  59.1342323  13.9737352  53.4527345  60.5568205  13.5448349  53.1626192
  60.4654877  12.3247440  56.2137227  59.7236613  12.4730076  56.8001858
  60.1447621  12.5855706  55.3503977  68.4098539  21.8663419  56.0117617
  68.7185666  21.6212565  56.8840317  69.2074021  22.0710057  55.5236488
  68.4319151  24.0201328  48.2422994  67.9924142  23.5277707  48.9355851
  69.1827268  23.4774296  48.0015069  60.9111490  20.2112869  48.2447622
  61.7369510  19.9116641  47.8646266  60.5605542  19.4420491  48.6937411
  65.8793024  19.5639337  50.3145296  65.2573033  18.9010042  50.0147523
  66.5497891  19.5900469  49.6318943  59.1120095  18.1299195  49.2036556
  58.2752004  17.7021370  49.0220557  59.0843741  18.3231639  50.1407347
  65.4406531  18.1143261  43.7903756  65.5894651  18.7978725  43.1370429
  66.2472974  18.0948351  44.3053212  63.1959163  14.1408438  44.7964825
  62.9505205  13.2370768  44.9945035  63.3655078  14.1425589  43.8544303
  62.4654811   9.8736796  42.2950986  61.7724056   9.9481151  41.6391022
  62.2206563   9.1097139  42.8172503  68.9401936  20.6091391  41.2615504
  68.3675903  21.2281578  40.8085975  69.5134730  21.1590753  41.7955425
  69.3248735  11.9452204  38.6031556  70.2707839  11.8158412  38.6719974
  68.9462979  11.2066866  39.0800984  67.5091652   9.8702180  38.5386441
  66.6023107   9.5735293  38.6149155  67.7867633   9.5731998  37.6720727
  58.4269592  11.1908544  48.9885488  58.1072376  10.3373852  48.6959862
  57.8803020  11.4057122  49.7443455  62.2049500  13.9070985  52.7054994
  62.4235509  14.8388092  52.7243028  62.6175273  13.5478959  53.4909798
  58.2957852  14.8111455  50.9578609  57.6021324  14.3965408  50.4448564
  59.0430843  14.8531992  50.3612028  60.2094595  14.7429709  48.8344624
  60.1865283  14.8417396  47.8826507  60.5195231  15.5894860  49.1561790
  62.8681972  16.8005864  52.9491239  63.8225226  16.7689806  52.8821170
  62.6694496  16.3396488  53.7641464  63.4581355  15.3706980  55.5162036
  64.2774244  15.8651059  55.5396873  63.7318162  14.4538948  55.4879604
  61.2232201  22.3425483  49.9661436  61.0886669  21.5825884  49.3999434
  60.8064264  23.0666383  49.4990225  64.3801327  23.2394800  50.1779879
  64.2633711  24.1840233  50.0758569  63.5593773  22.9368362  50.5665678
  58.7116269   9.7045114  56.2154233  59.3575132   9.1944068  56.7041458
  58.5033420  10.4413795  56.7897659  65.4055841  23.8923062  53.3935807
  66.3083088  23.9246673  53.7102302  65.1793211  22.9623513  53.4082143
  67.1609443  22.6454049  50.0545886  66.2105074  22.6455910  49.9410258
  67.4641929  21.8986783  49.5381921  71.6259490  25.6244478  49.8699892
  70.8358544  25.8802006  49.3940003  72.1170738  26.4392816  49.9751933
  69.9097193  25.8774968  52.3014883  70.1605232  26.7621978  52.5672459
  70.4456742  25.6979570  51.5289975  70.5406235  30.0265960  45.9932359
  71.3781457  30.4362968  45.7766067  70.7184503  29.0865402  45.9632553
  70.5632406  27.3656675  46.6643093  70.3656806  26.7726036  45.9394159
  70.0079070  27.0608886  47.3819032  67.1232237  29.0506871  48.8310838
  67.8103277  28.7368601  48.2431854  66.9680366  29.9548235  48.5578090
  71.9266960  23.9397067  53.2595862  71.8425148  23.3322737  52.5246272
  71.1049666  24.4306085  53.2605358  66.7000214  27.1307464  51.1028305
  66.7384313  26.5971055  51.8965423  66.1940506  26.6042669  50.4839283
  70.3308791  25.8571566  44.1782237  70.6262232  24.9482244  44.1249290
  69.4296827  25.8359306  43.8563239  72.0596633  23.5385664  44.3021562
  71.7309339  22.6583043  44.1196668  72.4136003  23.4833332  45.1897951
  70.5182609  28.5269462  53.3207070  69.9736077  29.3029270  53.4527345
  71.3961959  28.8740266  53.1626192  71.3048631  27.6539358  56.2137227
  70.5630367  27.8021993  56.8001858  70.9841376  27.9147624  55.3503977
  69.9513850  33.4591113  49.2036556  69.1145758  33.0313288  49.0220557
  69.9237495  33.6523556  50.1407347  69.2663347  26.5200461  48.9885488
  68.9466131  25.6665769  48.6959862  68.7196775  26.7349039  49.7443455
  69.1351607  30.1403373  50.9578609  68.4415078  29.7257326  50.4448564
  69.8824598  30.1823909  50.3612028  71.0488349  30.0721627  48.8344624
  71.0259037  30.1709314  47.8826507  71.3588986  30.9186777  49.1561790
  72.0625956  37.6717401  49.9661436  71.9280424  36.9117802  49.3999434
  71.6458018  38.3958301  49.4990225  69.5510023  25.0337031  56.2154233
  70.1968887  24.5235985  56.7041458  69.3427174  25.7705713  56.7897659
  69.9513851  10.4653236  35.9281862  69.1145760  10.0375410  35.7465863
  69.9237497  10.6585679  36.8652653  72.0625957  14.6779524  36.6906743
  71.9280425  13.9179925  36.1244741  71.6458019  15.4020424  36.2235532
  16.1075688  33.9548461  68.9073913  15.4563668  34.5402542  68.5207926
  16.9020051  34.4854656  68.9668950  22.3742412  30.4473397  70.1678750
  21.5971855  30.1084557  69.7233912  23.0533893  30.4526020  69.4933715
  13.7793473  29.5438568  64.7113284  12.8720535  29.3127822  64.9104433
  14.2764505  28.7476187  64.8987266  16.6861552  38.2536075  67.6309970
  16.0123251  38.5567772  68.2394928  17.0727374  39.0565156  67.2815427
  14.6557794  31.1859907  66.5725353  14.2177224  30.4695766  66.1130990
  15.3968235  31.4136021  66.0110444  14.8852767  38.4215748  69.8457050
  15.0604523  37.9503791  70.6602672  14.1985555  39.0481514  70.0738310
  18.7769022  30.0444288  66.1657410  18.1598193  29.3191116  66.0690463
  18.3085510  30.8053649  65.8224485  19.6006707  33.3683460  70.2850050
  19.8766551  33.2540055  71.1943924  18.7311206  32.9700945  70.2462223
  16.5702937  36.5437996  71.1897912  17.0990703  36.0330451  70.5768074
  16.8331156  36.2280526  72.0543445  19.6643120  36.5154794  71.8052895
  19.8379998  35.9501217  71.0526748  20.1572011  37.3155689  71.6232385
  20.6518293  35.8321559  68.9049794  21.3469197  36.4528251  69.1237108
  20.9941443  34.9816910  69.1802171  22.5509716  33.2821264  70.4337124
  23.0761040  33.6208537  69.7086444  22.4632068  32.3468280  70.2500259
  14.7433161  35.9383310  67.8124887  14.1707128  36.5573498  67.3595359
  15.3165955  36.4882672  68.3464809  17.9630421  36.2220461  68.9433469
  18.8961094  36.1566022  69.1466345  17.8753634  37.0576727  68.4848002
  20.5918438  35.5386331  65.9037417  20.5132069  35.2046195  66.7973175
  21.4128104  36.0308099  65.9028889  15.1279960  27.2744123  65.1540940
  16.0739064  27.1450331  65.2229358  14.7494205  26.5358785  65.6310368
  18.1622389  32.8554326  65.5247395  18.8658239  33.0604329  66.1405051
  17.4385038  33.4231088  65.7896479  20.0709087  33.2936856  67.5745855
  20.9054691  32.8618054  67.3923330  19.9093430  33.1218869  68.5022750
  19.7254979  29.7968969  68.9402195  19.6703783  29.6313240  67.9990639
  19.1001034  30.5045002  69.0964384  28.6993362  43.8106507  77.6701032
  29.3371772  43.6913254  76.9664372  28.5814205  44.7587351  77.7288984
  25.5083068  43.7633935  77.6062557  25.1701580  43.6474999  76.7183092
  26.3772836  43.3625100  77.5863563  21.3669884  45.6169411  73.5959448
  20.8034749  45.5259348  72.8275736  21.2522279  44.7969316  74.0761940
  26.9469443  49.2840379  68.9073913  26.2957422  49.8694459  68.5207926
  27.7413805  49.8146574  68.9668950  20.8725070  46.3729516  69.3061047
  21.6455946  45.8258503  69.1673923  21.2250469  47.2373765  69.5175508
  23.6366319  45.0782747  79.1029306  24.2329891  44.8538769  78.3886269
  23.6941291  44.3367492  79.7054754  23.2091347  42.5322182  66.9379497
  23.4616868  42.0103703  66.1762960  22.2715907  42.3688328  67.0406181
  28.2534630  41.5357961  74.7454240  29.0397720  41.1177384  74.3944657
  28.5173335  42.4404053  74.9135889  28.4244708  46.9730811  69.4442897
  27.7890541  47.0465437  70.1563802  28.0942114  47.5624410  68.7661976
  33.6543057  41.4733194  75.6487219  34.3868229  40.9032411  75.8825048
  32.8982413  41.0854794  76.0893724  22.9287636  44.4350288  69.1403872
  22.8123894  43.7595192  69.8084956  23.0389896  43.9482662  68.3236025
  25.2719177  43.8960435  72.8450561  24.9077384  43.3691056  73.5563483
  26.1286293  43.5058904  72.6717047  24.9124664  38.9250335  67.8411910
  25.0799066  39.7930571  68.2082381  24.7221833  39.0877617  66.9173199
  21.1212479  43.8381111  75.5414444  20.1962975  43.7057325  75.7492136
  21.3696892  44.6175330  76.0384387  31.0697141  39.9049854  77.1875177
  30.1614018  39.8365262  76.8933938  31.0184737  40.3821799  78.0157003
  24.8913885  41.3807992  68.8258576  24.7713510  41.8265043  69.6644057
  24.1966473  41.7293310  68.2672115  22.6520777  54.1511634  72.4748708
  22.5744807  55.1019459  72.5537188  22.0482421  53.8057507  73.1323634
  32.9358788  38.1066292  78.9653051  32.2933168  38.3998826  78.3192846
  32.4313716  37.9919213  79.7706248  30.5898951  41.8529466  69.6538911
  31.5016807  42.0856852  69.4786608  30.0808598  42.4366510  69.0913989
  24.7496495  46.5729692  74.3102577  25.2134841  46.8517395  73.5207200
  24.4853293  45.6713137  74.1275668  21.6420576  46.1201174  77.2482340
  22.2121933  46.5488442  76.6099825  22.2328688  45.8383758  77.9466526
  23.6865381  42.6952845  71.1192142  24.3889425  43.1473888  71.5866069
  23.3546010  42.0536663  71.7472035  19.3805461  41.3180976  73.3792752
  18.5836624  41.4299671  73.8976248  19.1531053  41.6567629  72.5133643
  24.9259146  49.5093787  71.1954247  24.7904821  50.3545323  71.6239095
  25.4668959  49.7113065  70.4320181  18.3788543  47.0269225  71.7682173
  18.8913064  47.8212475  71.9187737  19.0311256  46.3295516  71.7015774
  16.3437460  45.3557879  72.5441743  17.1812682  45.7654888  72.3275451
  16.5215728  44.4157322  72.5141937  28.2401892  43.0232960  68.2325576
  27.7248516  43.7937565  68.4713963  27.9679201  42.3498096  68.8558637
  25.8249003  37.8682661  73.2910814  24.9690600  37.4789511  73.1116453
  26.2375955  37.9474622  72.4310600  33.2136166  45.7765315  70.1678750
  32.4365609  45.4376474  69.7233912  33.8927647  45.7817938  69.4933715
  28.0288195  40.8960052  70.0585357  27.7238331  41.2106201  70.9095500
  28.9818638  40.9741472  70.1012690  26.4734627  47.0550276  71.7078311
  25.9455989  46.3203035  71.3951549  25.9722130  47.8324952  71.4618280
  21.2053355  37.7169942  74.0684923  21.7797107  37.4945123  73.3358116
  21.7924337  37.7858636  74.8213524  30.2632932  43.6043669  74.8749299
  30.7764814  44.2373661  75.3771009  30.9134156  43.0044864  74.5092659
  21.5322942  39.7474403  68.0880808  20.6960254  40.0849089  68.4090083
  21.3927712  39.6123383  67.1507945  23.5076023  34.5911191  72.7959992
  22.8540435  34.2760208  72.1716607  23.4656497  33.9686931  73.5219815
  24.6187228  44.8730486  64.7113284  23.7114289  44.6419739  64.9104433
  25.1158259  44.0768105  64.8987266  27.5255306  53.5827993  67.6309970
  26.8517005  53.8859690  68.2394928  27.9121128  54.3857073  67.2815427
  26.7413763  41.0793124  77.1207640  25.8236324  41.3008071  76.9629328
  27.1573907  41.1539435  76.2619347  27.5248811  42.4784540  72.2510320
  28.2720630  42.9905937  71.9417442  27.7940400  42.1568593  73.1114714
  25.7975461  44.9743081  69.2337274  24.8886680  44.6902113  69.3309744
  25.8270545  45.3942159  68.3740581  31.0294728  48.5849670  73.0028442
  30.5757055  47.7440580  73.0593632  30.3988695  49.2211069  73.3403222
  29.9727648  39.5141656  74.2329109  29.2350405  39.0019042  74.5639352
  30.2254421  39.0742038  73.4212386  29.4727668  50.4226167  73.9378260
  29.7650642  50.9831224  73.2190626  29.9826288  50.7154728  74.6931419
  30.0739275  32.2917908  74.8270879  30.3798152  31.4315272  74.5396794
  30.7991880  32.8835528  74.6269873  16.3663631  42.6948595  73.2152477
  16.1688031  42.1017955  72.4903543  15.8110295  42.3900805  73.9328415
  24.3460355  42.5871701  75.3347070  24.4008965  41.6345538  75.2589546
  23.5351557  42.7431140  75.8188368  25.4951549  46.5151824  66.5725353
  25.0570979  45.7987683  66.1130990  26.2361990  46.7427939  66.0110444
  22.2852715  41.2048761  73.0937449  21.4720580  41.5042932  73.5002641
  22.7811709  40.8104450  73.8111931  24.4361293  51.2006518  75.0271713
  24.3937472  51.4267364  74.0980245  25.3523992  50.9669893  75.1757514
  33.6124664  44.7909021  72.6301671  33.4742562  44.9810617  71.7022861
  33.2560882  45.5528404  73.0869723  22.5527094  48.0769547  74.8233676
  23.3467692  47.5819867  74.6216251  21.8418786  47.5487410  74.4601382
  18.8609857  42.2212629  70.8993429  17.9307445  42.1597084  71.1163391
  18.9567329  41.6988581  70.1030070  18.7795406  38.7467442  73.4871670
  19.0402223  39.6612775  73.3780831  19.6012578  38.2791884  73.6368283
  25.7246522  53.7507665  69.8457050  25.8998277  53.2795709  70.6602672
  25.0379310  54.3773432  70.0738310  26.6803585  48.0280172  75.8920351
  26.3453417  47.9880942  76.7878001  26.1807530  47.3624888  75.4190761
  29.6162776  45.3736206  66.1657410  28.9991947  44.6483034  66.0690463
  29.1479265  46.1345566  65.8224485  21.4061322  39.5921630  65.2878715
  20.5290789  39.4710431  64.9240961  21.8819075  38.8007709  65.0357603
  24.5925248  51.9447921  72.5341235  23.8092770  52.4869601  72.6279460
  25.2917993  52.4621900  72.9335476  27.9021898  37.7542550  75.1775441
  28.3990598  37.0012512  74.8576511  27.1308880  37.7906867  74.6118650
  28.9851679  46.5114237  72.7513864  28.0507958  46.6315700  72.5818568
  29.1628348  45.6086704  72.4873874  24.4856867  39.8959933  74.9047125
  24.1154655  39.3430973  75.5928031  24.9815960  39.2918067  74.3522125
  32.3724230  42.3531557  73.2863898  32.8384683  43.1859548  73.2124201
  32.8231731  41.8876538  73.9909157  30.4400462  48.6975378  70.2850050
  30.7160305  48.5831972  71.1943924  29.5704960  48.2992863  70.2462223
  27.0754526  52.9461729  73.9282864  27.2576920  52.1283385  74.3910616
  27.8987512  53.1629421  73.4907754  27.4096691  51.8729914  71.1897912
  27.9384458  51.3622368  70.5768074  27.6724911  51.5572444  72.0543445
  16.1340016  41.1863486  70.7291620  16.4293457  40.2774164  70.6758674
  15.2328052  41.1651225  70.4072623  17.8627858  38.8677583  70.8530946
  17.5340564  37.9874962  70.6706051  18.2167228  38.8125252  71.7407335
  27.1107437  50.5032486  75.3625931  26.9632399  49.5749193  75.5433501
  27.9360930  50.5252577  74.8783006  20.9769681  39.1550553  71.2206423
  21.3165753  39.6836474  70.4985032  21.4241801  39.4930959  71.9964990
  22.9637828  37.6525175  69.4199716  23.6846191  38.0306427  68.9163433
  22.3403132  38.3714051  69.5234694  27.1068951  38.3570324  70.3558048
  27.3232565  39.2394961  70.0546876  26.6263018  37.9656537  69.6263690
  30.5036875  51.8446712  71.8052895  30.6773752  51.2793135  71.0526748
  30.9965766  52.6447607  71.6232385  23.1101451  37.1872965  72.2497253
  23.2317362  36.2589611  72.4488140  22.8203493  37.2011651  71.3375568
  36.3576266  44.6083135  73.4243195  36.8007412  43.8590460  73.0262318
  35.4802776  44.5993271  73.0416927  31.4912047  51.1613476  68.9049794
  32.1862952  51.7820169  69.1237108  31.8335197  50.3108828  69.1802171
  33.3903470  48.6113182  70.4337124  33.9154794  48.9500455  69.7086444
  33.3025823  47.6760197  70.2500259  22.0831510  48.7727098  70.3413140
  22.2319630  49.4562562  69.6879812  22.8897953  48.7532188  70.8562595
  19.8384143  44.7992275  71.3474209  19.5930185  43.8954605  71.5454419
  20.0080058  44.8009426  70.4053687  19.1079791  40.5320633  68.8460370
  18.4149035  40.6064988  68.1900406  18.8631542  39.7680977  69.3681887
  25.5826916  51.2675228  67.8124887  25.0100883  51.8865415  67.3595359
  26.1559709  51.8174590  68.3464809  28.8024175  51.5512378  68.9433469
  29.7354849  51.4857940  69.1466345  28.7147388  52.3868645  68.4848002
  31.4312192  50.8678249  65.9037417  31.3525824  50.5338112  66.7973175
  32.2521859  51.3600017  65.9028889  25.9673714  42.6036041  65.1540940
  26.9132819  42.4742249  65.2229358  25.5887959  41.8650703  65.6310368
  31.9395599  34.2692047  75.1167831  31.7420420  33.9607135  76.0011163
  32.5495304  34.9953686  75.2465761  24.1516631  40.5286017  65.0895825
  23.2448087  40.2319130  65.1658538  24.4292612  40.2315835  64.2230111
  25.7678697  35.0722907  71.2440066  24.9579425  34.7269992  71.6195312
  26.4563114  34.7630451  71.8327678  27.6969245  34.1500954  72.8664363
  28.2500284  34.5696407  73.5254386  27.9339332  33.2236702  72.9087319
  22.9215416  37.3872953  65.2307804  23.7834580  37.7127851  65.4903621
  23.1065760  36.6004448  64.7180870  31.0748052  36.2601479  72.3743027
  30.4946721  36.9186283  71.9921079  30.8083985  35.4378824  71.9630445
  29.5251619  35.6606537  74.5764347  30.0251397  35.7723071  73.7678666
  30.1687227  35.3567590  75.2165156  29.8572930  38.4201569  71.4299375
  28.9698785  38.7051220  71.2119570  30.2726919  38.2595333  70.5826652
  33.2087466  38.4448090  75.1453715  33.9847857  38.9344543  75.4178331
  32.4835601  38.8706145  75.6025584  35.6460025  39.1575710  76.2027655
  36.2404516  38.9171446  75.4920963  35.7186609  38.4382840  76.8301192
  29.0016144  48.1846244  65.5247395  29.7051994  48.3896247  66.1405051
  28.2778793  48.7523006  65.7896479  29.8313954  43.9356105  71.6449666
  29.7749155  44.3924657  70.8057298  30.3842297  43.1746790  71.4672508
  33.6418760  39.7245837  72.4699785  33.3855694  39.3242473  73.3007993
  33.0171628  40.4389631  72.3449924  37.9531098  42.4641910  74.9771076
  37.3930656  42.5335100  75.7502638  37.3474601  42.2882895  74.2570573
  30.9102841  48.6228773  67.5745855  31.7448445  48.1909972  67.3923330
  30.7487184  48.4510787  68.5022750  30.5648733  45.1260887  68.9402195
  30.5097537  44.9605158  67.9990639  29.9394789  45.8336919  69.0964384
  23.8744859  34.6268996  68.5187513  23.8623529  35.5710835  68.6755784
  24.7668281  34.4439141  68.2246974  27.6896978  31.2211772  72.7733450
  26.9229374  30.6670259  72.9190132  28.1007683  31.2933641  73.6347602
  34.0485102  57.8614100  66.9379497  34.3010623  57.3395621  66.1762960
  33.1109661  57.6980245  67.0406181  35.7518419  54.2542253  67.8411910
  35.9192821  55.1222489  68.2082381  35.5615588  54.4169534  66.9173199
  32.3716697  55.0766321  68.0880808  31.5354009  55.4141007  68.4090083
  32.2321466  54.9415300  67.1507945  34.3469777  49.9203108  72.7959992
  33.6934189  49.6052126  72.1716607  34.3050251  49.2978849  73.5219815
  35.4580982  60.2022403  64.7113284  34.5508044  59.9711657  64.9104433
  35.9552014  59.4060023  64.8987266  29.7003612  57.5504546  70.8993429
  28.7701200  57.4889002  71.1163391  29.7961084  57.0280499  70.1030070
  32.2455077  54.9213548  65.2878715  31.3684543  54.8002349  64.9240961
  32.7212830  54.1299626  65.0357603  26.9733771  56.5155403  70.7291620
  27.2687212  55.6066082  70.6758674  26.0721806  56.4943143  70.4072623
  28.7021612  54.1969501  70.8530946  28.3734318  53.3166880  70.6706051
  29.0560983  54.1417170  71.7407335  33.8031582  52.9817092  69.4199716
  34.5239945  53.3598345  68.9163433  33.1796887  53.7005969  69.5234694
  29.9473545  55.8612551  68.8460370  29.2542790  55.9356906  68.1900406
  29.7025297  55.0972894  69.3681887  36.8067469  57.9327959  65.1540940
  37.7526573  57.8034167  65.2229358  36.4281714  57.1942621  65.6310368
  34.9910386  55.8577935  65.0895825  34.0841841  55.5611048  65.1658538
  35.2686367  55.5607753  64.2230111  36.6072451  50.4014825  71.2440066
  35.7973180  50.0561910  71.6195312  37.2956868  50.0922368  71.8327678
  33.7609170  52.7164870  65.2307804  34.6228334  53.0419769  65.4903621
  33.9459514  51.9296366  64.7180870  34.7138613  49.9560913  68.5187513
  34.7017283  50.9002753  68.6755784  35.6062035  49.7731059  68.2246974
  16.1075689  10.9610584  55.6319219  15.4563669  11.5464664  55.2453233
  16.9020052  11.4916779  55.6914257  22.3742413   7.4535520  56.8924056
  21.5971856   7.1146679  56.4479218  23.0533894   7.4588143  56.2179021
  13.7793474   6.5500691  51.4358591  12.8720536   6.3189944  51.6349740
  14.2764506   5.7538310  51.6232572  16.6861553  15.2598198  54.3555277
  16.0123252  15.5629895  54.9640235  17.0727375  16.0627278  54.0060734
  14.6557796   8.1922029  53.2970660  14.2177225   7.4757888  52.8376297
  15.3968236   8.4198144  52.7355751  14.8852768  15.4277870  56.5702356
  15.0604524  14.9565914  57.3847979  14.1985556  16.0543637  56.7983617
  18.7769023   7.0506411  52.8902717  18.1598194   6.3253239  52.7935770
  18.3085512   7.8115771  52.5469791  19.6006708  10.3745583  57.0095357
  19.8766552  10.2602177  57.9189231  18.7311207   9.9763068  56.9707530
  16.5702938  13.5500119  57.9143219  17.0990704  13.0392573  57.3013381
  16.8331157  13.2342649  58.7788752  19.6643121  13.5216917  58.5298202
  19.8379999  12.9563339  57.7772054  20.1572013  14.3217812  58.3477692
  20.6518294  12.8383681  55.6295100  21.3469199  13.4590374  55.8482415
  20.9941444  11.9879033  55.9047478  22.5509717  10.2883387  57.1582431
  23.0761041  10.6270660  56.4331751  22.4632070   9.3530402  56.9745566
  14.7433162  12.9445433  54.5370194  14.1707129  13.5635620  54.0840666
  15.3165956  13.4944795  55.0710116  17.9630422  13.2282583  55.6678776
  18.8961095  13.1628145  55.8711652  17.8753635  14.0638850  55.2093309
  20.5918439  12.5448454  52.6282724  20.5132070  12.2108317  53.5218482
  21.4128106  13.0370221  52.6274196  15.1279961   4.2806246  51.8786246
  16.0739066   4.1512454  51.9474664  14.7494206   3.5420908  52.3555674
  18.1622391   9.8616449  52.2492702  18.8658241  10.0666451  52.8650358
  17.4385039  10.4293211  52.5141785  20.0709088  10.2998978  54.2991162
  20.9054692   9.8680177  54.1168637  19.9093431  10.1280992  55.2268057
  19.7254980   6.8031091  55.6647501  19.6703784   6.6375363  54.7235945
  19.1001035   7.5107124  55.8209691  28.6993363  20.8168629  64.3946339
  29.3371773  20.6975377  63.6909679  28.5814206  21.7649473  64.4534291
  25.5083069  20.7696057  64.3307863  25.1701581  20.6537122  63.4428398
  26.3772838  20.3687222  64.3108870  21.3669885  22.6231534  60.3204754
  20.8034750  22.5321471  59.5521042  21.2522280  21.8031438  60.8007247
  18.9134317  24.1182725  63.1588975  19.7055609  23.7773550  62.7435274
  19.1530967  24.2277700  64.0791128  26.9469444  26.2902501  55.6319219
  26.2957424  26.8756582  55.2453233  27.7413807  26.8208696  55.6914257
  20.8725071  23.3791639  56.0306354  21.6455947  22.8320626  55.8919229
  21.2250470  24.2435888  56.2420815  23.6366320  22.0844869  65.8274613
  24.2329893  21.8600892  65.1131576  23.6941292  21.3429615  66.4300060
  23.2091349  19.5384305  53.6624804  23.4616869  19.0165826  52.9008267
  22.2715908  19.3750450  53.7651487  28.2534632  18.5420083  61.4699547
  29.0397721  18.1239506  61.1189964  28.5173336  19.4466175  61.6381195
  28.4244709  23.9792933  56.1688204  27.7890542  24.0527560  56.8809108
  28.0942115  24.5686532  55.4907283  33.6543059  18.4795316  62.3732525
  34.3868231  17.9094533  62.6070355  32.8982414  18.0916917  62.8139031
  22.9287637  21.4412411  55.8649179  22.8123896  20.7657314  56.5330263
  23.0389897  20.9544785  55.0481332  25.2719178  20.9022558  59.5695868
  24.9077386  20.3753179  60.2808789  26.1286294  20.5121027  59.3962353
  24.9124665  15.9312458  54.5657216  25.0799068  16.7992694  54.9327687
  24.7221834  16.0939739  53.6418506  27.6699999  24.3929436  66.2323047
  27.3700722  25.2954475  66.1238854  27.3251058  24.1261620  67.0844200
  21.1212480  20.8443233  62.2659751  20.1962977  20.7119447  62.4737443
  21.3696893  21.6237453  62.7629693  31.0697142  16.9111977  63.9120484
  30.1614020  16.8427385  63.6179245  31.0184738  17.3883922  64.7402309
  24.8913886  18.3870115  55.5503883  24.7713511  18.8327166  56.3889363
  24.1966475  18.7355433  54.9917421  18.4821291  20.4876507  63.1003540
  18.6113672  20.7410986  64.0142952  17.8018742  21.0804215  62.7808195
  22.6520778  31.1573757  59.1994014  22.5744808  32.1081582  59.2782495
  22.0482422  30.8119629  59.8568941  32.9358789  15.1128415  65.6898358
  32.2933169  15.4060948  65.0438152  32.4313717  14.9981335  66.4951555
  30.5898952  18.8591588  56.3784217  31.5016809  19.0918975  56.2031915
  30.0808599  19.4428632  55.8159296  29.1968535  23.8417407  63.7697799
  28.5677397  24.0063121  63.0673866  28.8094197  24.2559016  64.5408763
  33.0757767  24.7771844  61.1242162  32.3908805  25.1570746  60.5739196
  33.1601616  25.3867171  61.8574110  30.3308698  22.4231804  67.7237506
  30.5425593  23.0663563  67.0471887  30.2838446  21.5894120  67.2559436
  24.7496497  23.5791815  61.0347884  25.2134842  23.8579518  60.2452506
  24.4853295  22.6775259  60.8520974  21.6420578  23.1263296  63.9727647
  22.2121935  23.5550565  63.3345131  22.2328690  22.8445881  64.6711833
  23.6865383  19.7014967  57.8437449  24.3889426  20.1536011  58.3111375
  23.3546011  19.0598786  58.4717342  31.4454526  25.3003759  65.8959863
  32.2671970  24.8983946  65.6142545  31.4416929  25.1971993  66.8475979
  19.3805462  18.3243099  60.1038059  18.5836625  18.4361793  60.6221555
  19.1531054  18.6629751  59.2378950  25.2111130  24.8487802  68.0520574
  25.2755562  25.3108209  68.8878746  24.5022054  24.2185167  68.1802884
  39.5360519  21.6442507  62.2444835  38.7824228  21.0749905  62.0888839
  39.6708060  21.6105172  63.1915469  24.9259147  26.5155910  57.9199554
  24.7904822  27.3607445  58.3484402  25.4668960  26.7175187  57.1565488
  18.3788545  24.0331348  58.4927479  18.8913065  24.8274598  58.6433044
  19.0311258  23.3357638  58.4261081  20.1883429  27.1497104  60.5750232
  20.3650058  28.0715069  60.3871216  20.9840263  26.8355523  61.0044612
  21.3114745  28.6675278  66.5760575  21.8622170  28.5392341  65.8037569
  20.4726221  28.9670167  66.2255467  28.6508862  27.4182276  70.0781297
  28.6327337  28.2391157  69.5861567  29.5728782  27.2936351  70.3031439
  16.3437461  22.3620002  59.2687050  17.1812683  22.7717010  59.0520757
  16.5215729  21.4219444  59.2387244  28.2401894  20.0295083  54.9570883
  27.7248517  20.7999687  55.1959270  27.9679202  19.3560219  55.5803944
  25.8249005  14.8744783  60.0156121  24.9690601  14.4851634  59.8361760
  26.2375956  14.9536744  59.1555907  33.2136168  22.7827437  56.8924056
  32.4365610  22.4438597  56.4479218  33.8927649  22.7880061  56.2179021
  28.0288197  17.9022175  56.7830664  27.7238332  18.2168324  57.6340807
  28.9818639  17.9803595  56.8257997  26.4734629  24.0612398  58.4323618
  25.9455990  23.3265158  58.1196855  25.9722131  24.8387074  58.1863586
  31.4527475  22.2561419  63.5490664  30.7951149  22.9460680  63.6370793
  32.2567874  22.6457851  63.8924650  21.2053356  14.7232064  60.7930229
  21.7797108  14.5007246  60.0603422  21.7924339  14.7920759  61.5458831
  30.2632933  20.6105791  61.5994606  30.7764815  21.2435783  62.1016316
  30.9134157  20.0106987  61.2337966  21.5322943  16.7536525  54.8126115
  20.6960256  17.0911212  55.1335389  21.3927713  16.6185505  53.8753252
  23.5076024  11.5973313  59.5205299  22.8540436  11.2822330  58.8961914
  23.4656498  10.9749054  60.2465122  24.6187229  21.8792608  51.4358591
  23.7114291  21.6481862  51.6349740  25.1158261  21.0830228  51.6232572
  26.7413764  18.0855247  63.8452946  25.8236326  18.3070194  63.6874634
  27.1573908  18.1601557  62.9864654  27.5248812  19.4846663  58.9755627
  28.2720631  19.9968060  58.6662749  27.7940402  19.1630715  59.8360020
  25.7975462  21.9805203  55.9582581  24.8886681  21.6964236  56.0555051
  25.8270546  22.4004282  55.0985888  31.0294730  25.5911793  59.7273749
  30.5757057  24.7502703  59.7838939  30.3988696  26.2273191  60.0648529
  29.9727649  16.5203779  60.9574416  29.2350406  16.0081165  61.2884659
  30.2254423  16.0804160  60.1457693  29.4727669  27.4288289  60.6623567
  29.7650643  27.9893347  59.9435932  29.9826289  27.7216850  61.4176726
  30.0739277   9.2980031  61.5516185  30.3798153   8.4377394  61.2642100
  30.7991881   9.8897651  61.3515179  16.3663633  19.7010717  59.9397783
  16.1688032  19.1080078  59.2148850  15.8110297  19.3962928  60.6573722
  24.3460356  19.5933824  62.0592376  24.4008966  18.6407660  61.9834853
  23.5351558  19.7493263  62.5433675  25.4951550  23.5213947  53.2970660
  25.0570980  22.8049806  52.8376297  26.2361991  23.7490062  52.7355751
  22.2852716  18.2110884  59.8182755  21.4720582  18.5105054  60.2247947
  22.7811710  17.8166572  60.5357237  24.4361294  28.2068641  61.7517020
  24.3937473  28.4329487  60.8225552  25.3523993  27.9732015  61.9002821
  33.6124665  21.7971144  59.3546978  33.4742563  21.9872740  58.4268167
  33.2560884  22.5590527  59.8115029  33.6394044  23.8647671  64.3658250
  34.0730551  23.7722960  65.2141304  34.3525625  23.8405171  63.7278266
  22.5527095  25.0831670  61.5478983  23.3467693  24.5881990  61.3461558
  21.8418787  24.5549533  61.1846688  27.3721939  27.4649765  65.8991350
  27.4258962  28.0340701  66.6669066  26.5036721  27.6351650  65.5345387
  18.8609858  19.2274751  57.6238735  17.9307446  19.1659207  57.8408697
  18.9567330  18.7050704  56.8275377  18.7795407  15.7529564  60.2116977
  19.0402225  16.6674897  60.1026137  19.6012580  15.2854007  60.3613590
  34.5009594  23.9071372  66.8991135  34.6945484  24.8117182  67.1450410
  34.4010212  23.4478791  67.7329720  26.3310039  21.6310027  67.4578282
  27.2602099  21.7821187  67.2847249  25.9101069  21.7194048  66.6026929
  25.1298371  25.6560692  65.2276820  24.9909457  25.2879476  66.1002758
  24.3412967  26.1708331  65.0560777  25.7246523  30.7569788  56.5702356
  25.8998278  30.2857831  57.3847979  25.0379311  31.3835554  56.7983617
  26.6803586  25.0342294  62.6165657  26.3453419  24.9943064  63.5123307
  26.1807532  24.3687010  62.1436068  29.6162778  22.3798329  52.8902717
  28.9991948  21.6545157  52.7935770  29.1479266  23.1407689  52.5469791
  31.2716909  27.0897237  70.5508497  31.2129455  26.4056457  69.8839080
  31.6736428  27.8316227  70.0989123  20.2907608  33.9059151  63.3442216
  20.5304206  34.5377675  64.0221235  19.4476805  33.5547191  63.6307576
  21.4061324  16.5983753  52.0124021  20.5290790  16.4772554  51.6486268
  21.8819077  15.8069831  51.7602910  31.2734317  25.0536821  68.7822477
  30.3861095  24.7162743  68.9048876  31.8432868  24.3219852  69.0191243
  12.9263464  21.3860913  62.1065529  13.6134504  21.0722643  61.5186544
  12.7711592  22.2902277  61.8332780  24.8035470  29.7138273  65.7483720
  24.7305641  30.5193245  66.2603025  24.3612863  29.9130239  64.9231742
  24.5925250  28.9510043  59.2586542  23.8092771  29.4931723  59.3524766
  25.2917995  29.4684023  59.6580783  27.9021900  14.7604673  61.9020747
  28.3990599  14.0074635  61.5821818  27.1308881  14.7968989  61.3363957
  35.7551657  20.4645038  63.5439039  35.7441533  21.3469754  63.1732972
  34.8869037  20.1116589  63.3493576  27.2634153  29.6125107  67.9041879
  27.9762126  30.2472572  67.8317780  26.7724182  29.7088973  67.0881881
  28.9851680  23.5176360  59.4759171  28.0507959  23.6377822  59.3063875
  29.1628349  22.6148827  59.2119181  24.4856868  16.9022056  61.6292432
  24.1154656  16.3493096  62.3173337  24.9815961  16.2980189  61.0767432
  32.3724232  19.3593679  60.0109205  32.8384684  20.1921671  59.9369507
  32.8231732  18.8938661  60.7154463  22.3146067  27.3619551  68.7247450
  23.0155526  27.9956034  68.8776844  21.8441182  27.7034282  67.9643089
  30.4400463  25.7037500  57.0095357  30.7160307  25.5894095  57.9189231
  29.5704962  25.3054985  56.9707530  30.1147353  19.9164158  66.5500000
  29.4618803  20.1640066  65.8952453  30.4927733  19.1028296  66.2162477
  27.0754527  29.9523851  60.6528170  27.2576921  29.1345507  61.1155923
  27.8987513  30.1691544  60.2153060  27.4096692  28.8792036  57.9143219
  27.9384459  28.3684491  57.3013381  27.6724912  28.5634567  58.7788752
  17.9113785  26.8955906  65.6578553  18.4967222  26.1499594  65.7906457
  17.7138624  27.2059862  66.5415216  20.7652440  29.9307153  60.6740995
  20.0962816  30.4153281  60.1905035  20.6265310  30.1776374  61.5884373
  24.9057709  31.9650897  67.2723653  25.4576017  32.1282518  68.0372738
  25.2463902  32.5555334  66.6003678  16.1340017  18.1925608  57.4536927
  16.4293458  17.2836287  57.4003981  15.2328053  18.1713348  57.1317929
  28.0426096  29.9132872  64.2587335  27.9177236  29.1122612  63.7498281
  28.7005187  30.4079066  63.7701305  30.1061005  27.7141892  65.8866886
  29.1591340  27.5947243  65.8145212  30.4543778  26.8264390  65.9693147
  17.8627859  15.8739706  57.5776252  17.5340565  14.9937085  57.3951358
  18.2167230  15.8187374  58.4652641  27.1107438  27.5094608  62.0871238
  26.9632400  26.5811316  62.2678808  27.9360931  27.5314699  61.6028313
  20.9769682  16.1612676  57.9451730  21.3165755  16.6898597  57.2230338
  21.4241803  16.4993082  58.7210296  30.7141560  28.3323167  63.1736110
  31.6388107  28.1266029  63.0360562  30.5456863  28.0839568  64.0825452
  22.9637829  14.6587297  56.1445023  23.6846192  15.0368550  55.6408739
  22.3403133  15.3776174  56.2480001  27.1068952  15.3632446  57.0803355
  27.3232567  16.2457084  56.7792183  26.6263019  14.9718660  56.3508997
  30.5036876  28.8508835  58.5298202  30.6773753  28.2855257  57.7772054
  30.9965767  29.6509730  58.3477692  23.1101452  14.1935088  58.9742559
  23.2317364  13.2651734  59.1733447  22.8203495  14.2073774  58.0620875
  36.3576267  21.6145258  60.1488502  36.8007413  20.8652583  59.7507625
  35.4802777  21.6055394  59.7662234  33.3903471  25.6175305  57.1582431
  33.9154796  25.9562577  56.4331751  33.3025824  24.6822320  56.9745566
  25.0523520  29.5309378  69.2872308  25.3610647  29.2858525  70.1595007
  25.8499002  29.7356017  68.7991178  25.0744132  31.6847288  61.5177684
  24.6349123  31.1923667  62.2110541  25.8252249  31.1420256  61.2769759
  17.5536471  27.8758829  61.5202312  18.3794491  27.5762601  61.1400956
  17.2030523  27.1066451  61.9692101  22.5218004  27.2285297  63.5899986
  21.8998014  26.5656002  63.2902214  23.1922871  27.2546429  62.9073634
  15.7545076  25.7945155  62.4791246  14.9176985  25.3667330  62.2975247
  15.7268722  25.9877599  63.4162037  33.0797378  26.2508208  72.4633629
  32.2892921  26.2332347  71.9238128  32.8430732  26.7896502  73.2182666
  33.1995253  23.1000675  69.7766357  33.2493258  22.9350682  70.7181880
  33.0909176  22.2327934  69.3864238  22.0831511  25.7789220  57.0658446
  22.2319632  26.4624685  56.4125119  22.8897955  25.7594310  57.5807902
  34.7013449  25.5197616  70.0208379  34.4098258  25.8827597  70.8571840
  34.0885581  24.8064624  69.8421711  35.9009132  23.0850496  62.5410949
  36.7356023  23.5240300  62.7048510  36.0368261  22.6089149  61.7219195
  32.9500638  20.6430231  68.4888437  33.4254759  20.8357877  67.6807288
  32.0266203  20.6989417  68.2431821  19.8384144  21.8054398  58.0719515
  19.5930186  20.9016728  58.2699725  20.0080059  21.8071548  57.1298993
  19.1079792  17.5382756  55.5705677  18.4149037  17.6127111  54.9145713
  18.8631544  16.7743099  56.0927194  25.5826917  28.2737351  54.5370194
  25.0100884  28.8927538  54.0840666  26.1559710  28.8236712  55.0710116
  28.8024177  28.5574501  55.6678776  29.7354850  28.4920063  55.8711652
  28.7147389  29.3930768  55.2093309  34.1290384  20.7402111  65.8359042
  34.0966705  19.8018111  66.0218726  34.7391008  20.8186147  65.1024867
  25.9673715  19.6098164  51.8786246  26.9132820  19.4804372  51.9474664
  25.5887960  18.8712825  52.3555674  34.2784873  17.5313154  65.8817325
  33.7623922  16.7471611  65.6947254  35.1624821  17.2031871  66.0463845
  31.9395600  11.2754170  61.8413138  31.7420421  10.9669258  62.7256470
  32.5495305  12.0015808  61.9711068  39.9466934  21.8018117  64.9765079
  40.6770323  21.5403406  65.5372782  39.3373880  21.0646839  65.0167147
  38.0282231  19.9425980  65.5739530  37.3015395  19.8081945  64.9656022
  37.6129518  20.2502809  66.3796248  24.1516632  17.5348140  51.8141132
  23.2448088  17.2381253  51.8903845  24.4292613  17.2377958  50.9475418
  25.7678698  12.0785030  57.9685373  24.9579427  11.7332115  58.3440619
  26.4563115  11.7692573  58.5572984  27.6969246  11.1563076  59.5909669
  28.2500285  11.5758530  60.2499693  27.9339333  10.2298825  59.6332625
  22.9215417  14.3935075  51.9553111  23.7834581  14.7189973  52.2148928
  23.1065761  13.6066571  51.4426177  31.0748054  13.2663602  59.0988334
  30.4946723  13.9248406  58.7166386  30.8083986  12.4440946  58.6875751
  29.5251620  12.6668659  61.3009654  30.0251398  12.7785194  60.4923973
  30.1687228  12.3629712  61.9410463  16.8519575  22.4075669  62.1099314
  16.8290263  22.5063356  61.1581197  17.1620212  23.2540819  62.4316481
  29.8572932  15.4263692  58.1544682  28.9698787  15.7113343  57.9364877
  30.2726921  15.2657455  57.3071959  33.2087468  15.4510213  61.8699021
  33.9847858  15.9406665  62.1423638  32.4835602  15.8768267  62.3270891
  35.6460026  16.1637832  62.9272962  36.2404517  15.9233568  62.2166270
  35.7186610  15.4444963  63.5546498  17.8657182  30.0071443  63.2416127
  17.7311650  29.2471844  62.6754125  17.4489244  30.7312343  62.7744916
  29.0016145  25.1908367  52.2492702  29.7051995  25.3958369  52.8650358
  28.2778794  25.7585129  52.5141785  29.8313955  20.9418228  58.3694972
  29.7749157  21.3986779  57.5302605  30.3842298  20.1808913  58.1917815
  33.6418761  16.7307960  59.1945092  33.3855695  16.3304595  60.0253299
  33.0171629  17.4451754  59.0695231  37.9531099  19.4704033  61.7016383
  37.3930657  19.5397222  62.4747945  37.3474602  19.2945018  60.9815879
  21.0226308  30.9040760  63.4534569  20.9058692  31.8486193  63.3513260
  20.2018754  30.6014322  63.8420369  30.5648735  22.1323009  55.6647501
  30.5097538  21.9667281  54.7235945  29.9394790  22.8399042  55.8209691
  23.8744860  11.6331118  55.2432820  23.8623530  12.5772958  55.4001091
  24.7668282  11.4501264  54.9492281  22.0480822  31.5569022  66.6690498
  22.9508069  31.5892632  66.9856993  21.8218192  30.6269473  66.6836834
  23.8034424  30.3100009  63.3300576  22.8530055  30.3101870  63.2164949
  24.1066910  29.5632743  62.8136611  27.6896980   8.2273895  59.4978757
  26.9229375   7.6732381  59.6435439  28.1007685   8.2995764  60.3592908
  39.5387118  36.1460547  64.3946339  40.1765528  36.0267294  63.6909679
  39.4207960  37.0941391  64.4534291  36.3476824  36.0987975  64.3307863
  36.0095335  35.9829040  63.4428398  37.2166592  35.6979140  64.3108870
  32.2063640  37.9523451  60.3204754  31.6428505  37.8613388  59.5521042
  32.0916035  37.1323356  60.8007247  36.8296607  37.2522827  70.2894069
  36.8185248  36.8575625  69.4174573  36.9917246  36.5188899  70.8827840
  29.7528071  39.4474643  63.1588975  30.5449363  39.1065468  62.7435274
  29.9924722  39.5569618  64.0791128  37.7863198  41.6194419  55.6319219
  37.1351178  42.2048500  55.2453233  38.5807561  42.1500614  55.6914257
  31.7118825  38.7083556  56.0306354  32.4849701  38.1612543  55.8919229
  32.0644224  39.5727806  56.2420815  33.5503868  40.0359939  69.2373253
  33.2593734  40.9405569  69.1219919  34.1860852  40.0776466  69.9517323
  34.4760075  37.4136787  65.8274613  35.0723647  37.1892810  65.1131576
  34.5335046  36.6721533  66.4300060  39.0928386  33.8712001  61.4699547
  39.8791475  33.4531424  61.1189964  39.3567090  34.7758093  61.6381195
  44.4936813  33.8087234  62.3732525  45.2261985  33.2386451  62.6070355
  43.7376169  33.4208834  62.8139031  36.1112933  36.2314475  59.5695868
  35.7471140  35.7045096  60.2808789  36.9680049  35.8412945  59.3962353
  42.0162234  27.5208808  66.8327134  41.6845558  28.3904219  66.6088349
  41.4207847  27.2045092  67.5121164  38.5093753  39.7221354  66.2323047
  38.2094476  40.6246393  66.1238854  38.1644813  39.4553537  67.0844200
  31.9606235  36.1735151  62.2659751  31.0356731  36.0411365  62.4737443
  32.2090648  36.9529370  62.7629693  41.9090897  32.2403894  63.9120484
  41.0007774  32.1719303  63.6179245  41.8578493  32.7175839  64.7402309
  29.3215046  35.8168424  63.1003540  29.4507427  36.0702903  64.0142952
  28.6412497  36.4096132  62.7808195  33.4914533  46.4865674  59.1994014
  33.4138563  47.4373500  59.2782495  32.8876176  46.1411547  59.8568941
  35.9831763  33.6593540  71.8555381  35.2065097  34.2187460  71.8458246
  36.6222326  34.1450323  72.3770251  43.7752543  30.4420333  65.6898358
  43.1326923  30.7352866  65.0438152  43.2707472  30.3273253  66.4951555
  41.4292707  34.1883506  56.3784217  42.3410563  34.4210893  56.2031915
  40.9202354  34.7720550  55.8159296  34.2378135  36.4678993  71.4173348
  34.9792819  37.0064037  71.1408172  33.5315120  37.0945282  71.5744900
  39.7133475  38.6108134  70.0145510  40.1216831  38.1690544  69.2700142
  38.9910736  38.0360761  70.2679703  36.0664545  33.5480740  67.3879067
  36.9125740  33.9720154  67.5313716  36.0063182  32.8914365  68.0817630
  40.0362289  39.1709324  63.7697799  39.4071152  39.3355038  63.0673866
  39.6487951  39.5850934  64.5408763  43.9151521  40.1063762  61.1242162
  43.2302559  40.4862664  60.5739196  43.9995370  40.7159089  61.8574110
  39.2163990  31.2085109  69.0460240  38.9724922  31.9627169  68.5094516
  39.4923920  31.5870456  69.8807487  41.1702453  37.7523721  67.7237506
  41.3819348  38.3955481  67.0471887  41.1232201  36.9186038  67.2559436
  38.7728682  30.3641542  64.6274078  37.9113161  30.6622795  64.9190816
  38.7991116  30.5811941  63.6955111  35.5890251  38.9083732  61.0347884
  36.0528597  39.1871435  60.2452506  35.3247049  38.0067177  60.8520974
  32.4814332  38.4555214  63.9727647  33.0515689  38.8842482  63.3345131
  33.0722444  38.1737799  64.6711833  34.5259137  35.0306885  57.8437449
  35.2283180  35.4827928  58.3111375  34.1939766  34.3890704  58.4717342
  32.9739499  33.6218641  72.2188658  32.3438159  34.3034922  72.4524055
  32.8675587  33.5101723  71.2741797  28.2684471  33.2890437  63.1454582
  27.4783525  33.5447966  62.6694693  28.7595718  34.1038775  63.2506623
  42.2848281  40.6295677  65.8959863  43.1065724  40.2275864  65.6142545
  42.2810684  40.5263911  66.8475979  30.2199216  33.6535017  60.1038059
  29.4230380  33.7653711  60.6221555  29.9924809  33.9921669  59.2378950
  36.0504884  40.1779720  68.0520574  36.1149317  40.6400127  68.8878746
  35.3415808  39.5477085  68.1802884  26.5522174  33.5420928  65.5769573
  26.8030213  34.4267938  65.8427149  27.0881722  33.3625529  64.8044665
  50.3754274  36.9734425  62.2444835  49.6217982  36.4041823  62.0888839
  50.5101815  36.9397090  63.1915469  35.7652902  41.8447827  57.9199554
  35.6298577  42.6899363  58.3484402  36.3062714  42.0467105  57.1565488
  29.2182299  39.3623265  58.4927479  29.7306820  40.1566516  58.6433044
  29.8705012  38.6649556  58.4261081  31.0277184  42.4789022  60.5750232
  31.2043812  43.4006986  60.3871216  31.8234017  42.1647441  61.0044612
  35.1688202  29.3397286  72.1734166  35.9097916  29.9404439  72.0938628
  35.4006125  28.5974924  71.6152208  30.3129540  34.5253654  70.4512396
  30.1983056  33.6238911  70.7519494  29.4574058  34.7717350  70.0997212
  37.3921378  42.4671394  72.0499896  36.9485232  41.6807772  71.7320801
  38.0538592  42.6550544  71.3843787  32.1508499  43.9967196  66.5760575
  32.7015924  43.8684259  65.8037569  31.3119975  44.2962085  66.2255467
  39.4902616  42.7474194  70.0781297  39.4721092  43.5683075  69.5861567
  40.4122536  42.6228269  70.3031439  35.9475670  40.2618323  70.9204806
  36.4804007  39.5006612  70.6904114  35.4189751  39.9691975  71.6628960
  39.1145365  25.3678389  66.4498448  38.7709635  26.2580031  66.3737558
  39.4824328  25.1780047  65.5868033  27.1831216  37.6911920  59.2687050
  28.0206438  38.1008928  59.0520757  27.3609484  36.7511362  59.2387244
  36.6642759  30.2036701  60.0156121  35.8084355  29.8143552  59.8361760
  37.0769711  30.2828662  59.1555907  38.1941906  27.7383044  64.4147681
  37.6906701  27.7013180  63.6015486  38.4872513  28.6475787  64.4744337
  34.4384792  27.8221774  63.4213863  35.3037788  27.6264583  63.0619752
  34.5062301  27.5932126  64.3483219  37.3128383  39.3904316  58.4323618
  36.7849745  38.6557075  58.1196855  36.8115886  40.1678992  58.1863586
  42.2921229  37.5853336  63.5490664  41.6344904  38.2752598  63.6370793
  43.0961628  37.9749768  63.8924650  32.0447111  30.0523982  60.7930229
  32.6190863  29.8299164  60.0603422  32.6318093  30.1212677  61.5458831
  41.1026688  35.9397709  61.5994606  41.6158570  36.5727701  62.1016316
  41.7527912  35.3398904  61.2337966  34.3469778  26.9265231  59.5205299
  33.6934191  26.6114248  58.8961914  34.3050253  26.3040971  60.2465122
  38.3649062  45.9182033  54.3555277  37.6910761  46.2213730  54.9640235
  38.7514884  46.7211114  54.0060734  37.5807519  33.4147165  63.8452946
  36.6630080  33.6362112  63.6874634  37.9967662  33.4893475  62.9864654
  38.3642567  34.8138580  58.9755627  39.1114385  35.3259977  58.6662749
  38.6334156  34.4922633  59.8360020  41.8688484  40.9203710  59.7273749
  41.4150811  40.0794620  59.7838939  41.2382451  41.5565109  60.0648529
  40.8121404  31.8495696  60.9574416  40.0744160  31.3373083  61.2884659
  41.0648177  31.4096078  60.1457693  40.3121423  42.7580207  60.6623567
  40.6044398  43.3185264  59.9435932  40.8220044  43.0508768  61.4176726
  40.9133031  24.6271948  61.5516185  41.2191908  23.7669312  61.2642100
  41.6385636  25.2189569  61.3515179  27.2057387  35.0302635  59.9397783
  27.0081787  34.4371996  59.2148850  26.6504051  34.7254845  60.6573722
  35.1854111  34.9225742  62.0592376  35.2402721  33.9699578  61.9834853
  34.3745313  35.0785181  62.5433675  33.1246471  33.5402801  59.8182755
  32.3114336  33.8396972  60.2247947  33.6205465  33.1458490  60.5357237
  35.2755049  43.5360558  61.7517020  35.2331227  43.7621405  60.8225552
  36.1917747  43.3023933  61.9002821  38.7220682  34.0044626  68.6497649
  39.0770070  34.2316099  69.5092115  39.3692814  34.3363003  68.0274904
  44.4518419  37.1263062  59.3546978  44.3136318  37.3164658  58.4268167
  44.0954638  37.8882444  59.8115029  32.6160545  31.1121157  65.4343990
  33.2559925  30.9709916  64.7366953  31.7838076  30.8255670  65.0582592
  44.4787799  39.1939589  64.3658250  44.9124306  39.1014878  65.2141304
  45.1919380  39.1697089  63.7278266  33.3920849  40.4123587  61.5478983
  34.1861448  39.9173907  61.3461558  32.6812542  39.8841450  61.1846688
  38.2115694  42.7941683  65.8991350  38.2652716  43.3632619  66.6669066
  37.3430475  42.9643568  65.5345387  29.7003613  34.5566669  57.6238735
  28.7701201  34.4951124  57.8408697  29.7961085  34.0342622  56.8275377
  29.6189162  31.0821482  60.2116977  29.8795979  31.9966815  60.1026137
  30.4406334  30.6145924  60.3613590  31.0914087  32.4959239  67.3815801
  31.7637141  32.2876601  66.7328450  30.2643874  32.2981325  66.9421034
  36.9939659  29.1221180  69.3981462  36.3467574  29.8211130  69.3045939
  37.7640675  29.5557324  69.7657711  40.4018457  39.3870032  72.4732016
  40.2503964  39.1580584  71.5562099  40.3923137  40.3440633  72.4863361
  37.1703794  36.9601945  67.4578282  38.0995854  37.1113104  67.2847249
  36.7494824  37.0485966  66.6026929  35.9692125  40.9852609  65.2276820
  35.8303211  40.6171394  66.1002758  35.1806722  41.5000249  65.0560777
  36.5640277  46.0861706  56.5702356  36.7392033  45.6149749  57.3847979
  35.8773065  46.7127472  56.7983617  37.5197340  40.3634212  62.6165657
  37.1847173  40.3234982  63.5123307  37.0201286  39.6978928  62.1436068
  31.4941584  35.7701842  68.1418239  31.3561382  35.0382081  68.7429778
  32.4046508  35.6810742  67.8602426  34.1223885  35.4821801  67.6301918
  34.8323504  34.8414993  67.5888537  34.0793193  35.7334696  68.5528099
  42.1110664  42.4189155  70.5508497  42.0523210  41.7348375  69.8839080
  42.5130182  43.1608145  70.0989123  32.8352819  32.4687019  69.4497558
  32.2990176  32.0177758  70.1019154  32.2469528  32.6032928  68.7068022
  31.1301363  49.2351068  63.3442216  31.3697961  49.8669593  64.0221235
  30.2870559  48.8839108  63.6307576  42.1128071  40.3828739  68.7822477
  41.2254850  40.0454660  68.9048876  42.6826622  39.6511770  69.0191243
  23.7657218  36.7152830  62.1065529  24.4528258  36.4014560  61.5186544
  23.6105347  37.6194195  61.8332780  28.5691940  31.6043027  66.5350552
  28.4850129  30.9968696  65.8000962  27.7474647  32.0952045  66.5360049
  35.6429224  45.0430191  65.7483720  35.5699396  45.8485162  66.2603025
  35.2006618  45.2422157  64.9231742  35.4319004  44.2801961  59.2586542
  34.6486526  44.8223641  59.3524766  36.1311749  44.7975941  59.6580783
  38.7415654  30.0896590  61.9020747  39.2384354  29.3366553  61.5821818
  37.9702636  30.1260907  61.3363957  46.5945412  35.7936956  63.5439039
  46.5835288  36.6761671  63.1732972  45.7262791  35.4408507  63.3493576
  38.1027908  44.9417025  67.9041879  38.8155880  45.5764490  67.8317780
  37.6117937  45.0380891  67.0881881  39.8245435  38.8468278  59.4759171
  38.8901714  38.9669740  59.3063875  40.0022103  37.9440744  59.2119181
  35.3250623  32.2313973  61.6292432  34.9548410  31.6785014  62.3173337
  35.8209715  31.6272107  61.0767432  43.2117986  34.6885597  60.0109205
  43.6778438  35.5213588  59.9369507  43.6625487  34.2230578  60.7154463
  33.1539821  42.6911468  68.7247450  33.8549281  43.3247951  68.8776844
  32.6834936  43.0326200  67.9643089  41.1834649  27.0566184  64.0500106
  40.2697729  27.2870411  64.2182313  41.6127750  27.1404628  64.9014139
  40.9541107  35.2456076  66.5500000  40.3012558  35.4931983  65.8952453
  41.3321487  34.4320214  66.2162477  37.9148281  45.2815769  60.6528170
  38.0970676  44.4637425  61.1155923  38.7381267  45.4983461  60.2153060
  38.2490447  44.2083954  57.9143219  38.7778213  43.6976409  57.3013381
  38.5118666  43.8926484  58.7788752  37.0028680  35.9875887  73.0366037
  36.3269318  35.8870016  73.7068412  37.8256314  35.8315101  73.5002034
  28.7507540  42.2247823  65.6578553  29.3360976  41.4791511  65.7906457
  28.5532378  42.5351780  66.5415216  31.6046195  45.2599071  60.6740995
  30.9356570  45.7445198  60.1905035  31.4659064  45.5068291  61.5884373
  23.3425194  34.7953424  64.3782996  23.3809294  34.2617014  65.1720114
  22.8365487  34.2688629  63.7593973  35.7451463  47.2942814  67.2723653
  36.2969771  47.4574436  68.0372738  36.0857657  47.8847252  66.6003678
  30.7215957  29.6417964  67.8745538  30.7857283  30.5032795  67.4622936
  30.6583077  29.0291966  67.1417896  30.1968229  31.7141097  71.5218572
  30.8240268  31.3318174  72.1356097  29.3396148  31.4955299  71.8874265
  40.5962338  42.1204072  73.1272308  41.1402242  42.7334030  72.6327262
  40.0149183  42.6783650  73.6439321  26.9733772  33.5217526  57.4536927
  27.2687213  32.6128204  57.4003981  26.0721808  33.5005265  57.1317929
  38.8819851  45.2424790  64.2587335  38.7570990  44.4414530  63.7498281
  39.5398942  45.7370983  63.7701305  30.5028019  31.5973522  63.4364476
  29.7814605  32.2109490  63.2971949  31.2921275  32.1331287  63.3581122
  40.9454759  43.0433810  65.8866886  39.9985095  42.9239161  65.8145212
  41.2937532  42.1556308  65.9693147  33.3054332  28.9327949  69.7105127
  33.8288734  29.1790245  70.4731437  33.0866666  29.7647984  69.2908265
  28.7021613  31.2031623  57.5776252  28.3734320  30.3229002  57.3951358
  29.0560984  31.1479292  58.4652641  37.9501192  42.8386526  62.0871238
  37.8026155  41.9103234  62.2678808  38.7754686  42.8606617  61.6028313
  31.8163437  31.4904593  57.9451730  32.1559509  32.0190515  57.2230338
  32.2635557  31.8284999  58.7210296  41.5535314  43.6615085  63.1736110
  42.4781862  43.4557946  63.0360562  41.3850618  43.4131486  64.0825452
  34.5106877  29.8741644  67.3954798  34.1703698  29.0749457  67.7975478
  33.8045884  30.1743355  66.8231631  35.1623349  26.9590956  65.8482121
  35.9849419  26.4851435  65.7261011  35.4061413  27.7381440  66.3480807
  37.9462707  30.6924364  57.0803355  38.1626321  31.5749002  56.7792183
  37.4656774  30.3010577  56.3508997  32.6861928  33.6510077  63.6574100
  32.5406509  33.9650380  64.5498381  32.2087132  34.2694977  63.1044998
  34.5458311  30.6412625  63.7054989  34.5319880  29.7453718  63.3687287
  35.2630739  30.6483289  64.3393275  36.3984442  31.0749965  65.7508117
  36.1402219  31.9967036  65.7492447  35.8669482  30.6780400  66.4408581
  41.3430630  44.1800752  58.5298202  41.5167508  43.6147175  57.7772054
  41.8359522  44.9801647  58.3477692  33.9495207  29.5227005  58.9742559
  34.0711118  28.5943651  59.1733447  33.6597249  29.5365691  58.0620875
  36.8186397  27.2081916  62.1109279  36.8408094  27.2721249  61.1561259
  37.2354456  26.3686424  62.3049785  47.1970022  36.9437175  60.1488502
  47.6401168  36.1944500  59.7507625  46.3196532  36.9347312  59.7662234
  27.9473612  35.3185318  69.4891918  27.2055348  35.4667953  70.0756548
  27.6266356  35.5793583  68.6258667  35.8917275  44.8601296  69.2872308
  36.2004401  44.6150443  70.1595007  36.6892757  45.0647934  68.7991178
  35.9137887  47.0139206  61.5177684  35.4742877  46.5215584  62.2110541
  36.6646004  46.4712173  61.2769759  28.3930226  43.2050746  61.5202312
  29.2188246  42.9054518  61.1400956  28.0424278  42.4358369  61.9692101
  33.3611759  42.5577215  63.5899986  32.7391768  41.8947920  63.2902214
  34.0316626  42.5838347  62.9073634  26.5938831  41.1237073  62.4791246
  25.7570739  40.6959247  62.2975247  26.5662476  41.3169516  63.4162037
  33.4336286  31.0359003  73.1832492  33.4824442  31.9121125  72.8010261
  33.9758801  30.4936396  72.6104135  43.9191132  41.5800126  72.4633629
  43.1286676  41.5624265  71.9238128  43.6824487  42.1188420  73.2182666
  44.0389007  38.4292592  69.7766357  44.0887012  38.2642600  70.7181880
  43.9302930  37.5619851  69.3864238  32.9225266  41.1081138  57.0658446
  33.0713386  41.7916602  56.4125119  33.7291709  41.0886228  57.5807902
  41.3292769  34.4123520  71.0925664  42.2302632  34.2729985  70.8009662
  41.4040744  34.5777975  72.0323842  35.6635575  31.7890375  69.9378851
  34.7938884  32.0823941  69.6661439  35.8995055  32.3730820  70.6586114
  45.5407204  40.8489534  70.0208379  45.2492012  41.2119514  70.8571840
  44.9279335  40.1356542  69.8421711  46.7402886  38.4142414  62.5410949
  47.5749778  38.8532218  62.7048510  46.8762015  37.9381067  61.7219195
  43.7894392  35.9722148  68.4888437  44.2648514  36.1649795  67.6807288
  42.8659958  36.0281334  68.2431821  30.6777899  37.1346316  58.0719515
  30.4323941  36.2308646  58.2699725  30.8473813  37.1363466  57.1298993
  38.3674609  28.0069992  67.4544271  38.8856553  28.7431019  67.1290759
  38.0129741  28.3133985  68.2891030  38.6187203  24.4270275  62.9745168
  38.8988957  23.7593464  63.6005594  39.4037810  24.6199370  62.4619831
  36.4220671  43.6029268  54.5370194  35.8494638  44.2219456  54.0840666
  36.9953465  44.1528630  55.0710116  42.4896061  32.8487909  66.7216743
  43.4413484  32.9486006  66.7428967  42.3199512  32.0566177  67.2314827
  40.5110441  29.9343492  66.9076144  39.9160373  30.2148504  66.2122632
  40.2260137  30.4237393  67.6792885  44.9684139  36.0694028  65.8359042
  44.9360459  35.1310029  66.0218726  45.5784763  36.1478065  65.1024867
  45.1178627  32.8605072  65.8817325  44.6017676  32.0763528  65.6947254
  46.0018576  32.5323788  66.0463845  42.7789354  26.6046087  61.8413138
  42.5814175  26.2961175  62.7256470  43.3889060  27.3307726  61.9711068
  50.7860689  37.1310035  64.9765079  51.5164077  36.8695323  65.5372782
  50.1767634  36.3938757  65.0167147  48.8675986  35.2717898  65.5739530
  48.1409150  35.1373863  64.9656022  48.4523273  35.5794726  66.3796248
  36.6906162  38.9907827  73.3386903  37.6109172  39.1686426  73.5326950
  36.6555745  38.0463873  73.1866603  25.9088327  34.1846421  62.2640178
  25.5891112  33.3311729  61.9714552  25.3621756  34.3994999  63.0198145
  29.6868235  36.9008862  65.9809684  29.9054245  37.8325970  65.9997718
  30.0994009  36.5416836  66.7664488  36.6072453  27.4076947  57.9685373
  35.7973181  27.0624032  58.3440619  37.2956870  27.0984491  58.5572984
  38.5363001  26.4854994  59.5909669  39.0894040  26.9050448  60.2499693
  38.7733087  25.5590742  59.6332625  34.5596100  32.4742068  75.3712433
  34.4592827  33.4236425  75.3024524  34.3417642  32.1460307  74.4988503
  25.7776587  37.8049332  64.2333300  25.0840059  37.3903285  63.7203254
  26.5249578  37.8469869  63.6366718  41.9141808  28.5955519  59.0988334
  41.3340477  29.2540323  58.7166386  41.6477741  27.7732864  58.6875751
  40.3645374  27.9960577  61.3009654  40.8645153  28.1077111  60.4923973
  41.0080982  27.6921630  61.9410463  34.4227370  35.9039207  74.1877495
  33.9394452  36.7039567  74.3941384  34.5088309  35.9147151  73.2344939
  27.6913330  37.7367586  62.1099314  27.6684018  37.8355274  61.1581197
  28.0013966  38.5832737  62.4316481  30.3500708  39.7943741  66.2245929
  31.3043961  39.7627684  66.1575860  30.1513231  39.3334365  67.0396155
  30.9400090  38.3644857  68.7916726  31.7592979  38.8588936  68.8151564
  31.2136898  37.4476825  68.7634294  40.6966686  30.7555610  58.1544682
  39.8092541  31.0405260  57.9364877  41.1120675  30.5949373  57.3071959
  44.0481222  30.7802131  61.8699021  44.8241612  31.2698583  62.1423638
  43.3229356  31.2060185  62.3270891  46.4853781  31.4929750  62.9272962
  47.0798272  31.2525486  62.2166270  46.5580365  30.7736880  63.5546498
  28.7050937  45.3363361  63.2416127  28.5705404  44.5763762  62.6754125
  28.2882999  46.0604261  62.7744916  40.6707710  36.2710146  58.3694972
  40.6142911  36.7278697  57.5302605  41.2236052  35.5100830  58.1917815
  44.4812516  32.0599877  59.1945092  44.2249450  31.6596513  60.0253299
  43.8565384  32.7743671  59.0695231  48.7924854  34.7995951  61.7016383
  48.2324412  34.8689140  62.4747945  48.1868357  34.6236935  60.9815879
  31.8620062  46.2332678  63.4534569  31.7452447  47.1778110  63.3513260
  31.0412509  45.9306239  63.8420369  26.1935004  32.6982991  69.4908924
  26.8393868  32.1881945  69.9796149  25.9852155  33.4351673  70.0652349
  38.7188396  39.7663839  74.9901064  39.5879556  39.9404491  74.6287699
  38.2395148  40.5858256  74.8676793  32.8874577  46.8860940  66.6690498
  33.7901823  46.9184550  66.9856993  32.6611947  45.9561391  66.6836834
  34.6428179  45.6391926  63.3300576  33.6923810  45.6393788  63.2164949
  34.9460665  44.8924661  62.8136611  38.5290734  23.5565812  59.4978757
  37.7623130  23.0024299  59.6435439  38.9401439  23.6287681  60.3592908
  50.3780872  51.4752465  64.3946339  51.0159282  51.3559212  63.6909679
  50.2601715  52.4233309  64.4534291  47.1870578  51.4279893  64.3307863
  46.8489090  51.3120957  63.4428398  48.0560347  51.0271058  64.3108870
  43.0457394  53.2815369  60.3204754  42.4822259  53.1905306  59.5521042
  42.9309789  52.4615274  60.8007247  40.5921826  54.7766561  63.1588975
  41.3843118  54.4357385  62.7435274  40.8318476  54.8861536  64.0791128
  48.6256953  56.9486337  55.6319219  47.9744933  57.5340417  55.2453233
  49.4201316  57.4792532  55.6914257  42.5512580  54.0375474  56.0306354
  43.3243456  53.4904461  55.8919229  42.9037979  54.9019723  56.2420815
  45.3153829  52.7428705  65.8274613  45.9117402  52.5184727  65.1131576
  45.3728801  52.0013450  66.4300060  44.8878858  50.1968140  53.6624804
  45.1404378  49.6749661  52.9008267  43.9503417  50.0334286  53.7651487
  49.9322141  49.2003918  61.4699547  50.7185230  48.7823342  61.1189964
  50.1960845  50.1050011  61.6381195  50.1032218  54.6376769  56.1688204
  49.4678051  54.7111395  56.8809108  49.7729624  55.2270368  55.4907283
  55.3330568  49.1379152  62.3732525  56.0655740  48.5678368  62.6070355
  54.5769923  48.7500752  62.8139031  44.6075146  52.0996246  55.8649179
  44.4911405  51.4241149  56.5330263  44.7177406  51.6128620  55.0481332
  46.9506687  51.5606393  59.5695868  46.5864895  51.0337014  60.2808789
  47.8073803  51.1704862  59.3962353  52.8555988  42.8500726  66.8327134
  52.5239313  43.7196137  66.6088349  52.2601601  42.5337010  67.5121164
  46.5912174  46.5896293  54.5657216  46.7586577  47.4576529  54.9327687
  46.4009343  46.7523575  53.6418506  42.7999989  51.5027069  62.2659751
  41.8750486  51.3703283  62.4737443  43.0484402  52.2821288  62.7629693
  52.7484651  47.5695812  63.9120484  51.8401529  47.5011220  63.6179245
  52.6972247  48.0467757  64.7402309  46.5701395  49.0453950  55.5503883
  46.4501020  49.4911001  56.3889363  45.8753984  49.3939268  54.9917421
  40.1608800  51.1460342  63.1003540  40.2901181  51.3994821  64.0142952
  39.4806251  51.7388050  62.7808195  44.3308287  61.8157592  59.1994014
  44.2532317  62.7665417  59.2782495  43.7269931  61.4703465  59.8568941
  54.6146298  45.7712250  65.6898358  53.9720678  46.0644784  65.0438152
  54.1101226  45.6565171  66.4951555  52.2686461  49.5175424  56.3784217
  53.1804318  49.7502810  56.2031915  51.7596108  50.1012468  55.8159296
  46.9058299  48.8772658  67.3879067  47.7519494  49.3012072  67.5313716
  46.8456937  48.2206282  68.0817630  49.6122436  45.6933460  64.6274078
  48.7506915  45.9914713  64.9190816  49.6384871  45.9103858  63.6955111
  46.4284006  54.2375650  61.0347884  46.8922351  54.5163353  60.2452506
  46.1640804  53.3359095  60.8520974  43.3208087  53.7847132  63.9727647
  43.8909444  54.2134400  63.3345131  43.9116198  53.5029716  64.6711833
  45.3652892  50.3598802  57.8437449  46.0676935  50.8119846  58.3111375
  45.0333520  49.7182621  58.4717342  39.1078226  48.6182355  63.1454582
  38.3177280  48.8739884  62.6694693  39.5989473  49.4330693  63.2506623
  41.0592971  48.9826934  60.1038059  40.2624134  49.0945629  60.6221555
  40.8318563  49.3213587  59.2378950  37.3915929  48.8712846  65.5769573
  37.6423967  49.7559855  65.8427149  37.9275477  48.6917447  64.8044665
  46.6046656  57.1739745  57.9199554  46.4692331  58.0191281  58.3484402
  47.1456469  57.3759023  57.1565488  40.0576054  54.6915183  58.4927479
  40.5700574  55.4858433  58.6433044  40.7098766  53.9941474  58.4261081
  41.8670938  57.8080939  60.5750232  42.0437567  58.7298904  60.3871216
  42.6627772  57.4939359  61.0044612  41.1523295  49.8545571  70.4512396
  41.0376810  48.9530829  70.7519494  40.2967813  50.1009268  70.0997212
  49.9539120  40.6970307  66.4498448  49.6103389  41.5871949  66.3737558
  50.3218082  40.5071965  65.5868033  38.0224970  53.0203837  59.2687050
  38.8600192  53.4300846  59.0520757  38.2003238  52.0803280  59.2387244
  49.9189403  50.6878918  54.9570883  49.4036026  51.4583523  55.1959270
  49.6466711  50.0144054  55.5803944  47.5036514  45.5328619  60.0156121
  46.6478110  45.1435469  59.8361760  47.9163465  45.6120580  59.1555907
  49.0335660  43.0674962  64.4147681  48.5300456  43.0305097  63.6015486
  49.3266267  43.9767705  64.4744337  45.2778546  43.1513692  63.4213863
  46.1431543  42.9556501  63.0619752  45.3456055  42.9224044  64.3483219
  54.8923677  53.4411273  56.8924056  54.1153119  53.1022432  56.4479218
  55.5715158  53.4463896  56.2179021  49.7075706  48.5606010  56.7830664
  49.4025841  48.8752159  57.6340807  50.6606148  48.6387430  56.8257997
  48.1522138  54.7196233  58.4323618  47.6243499  53.9848993  58.1196855
  47.6509640  55.4970910  58.1863586  42.8840865  45.3815900  60.7930229
  43.4584617  45.1591081  60.0603422  43.4711848  45.4504594  61.5458831
  51.9420442  51.2689627  61.5994606  52.4552324  51.9019618  62.1016316
  52.5921666  50.6690822  61.2337966  43.2110452  47.4120361  54.8126115
  42.3747765  47.7495047  55.1335389  43.0715222  47.2769341  53.8753252
  45.1863533  42.2557149  59.5205299  44.5327945  41.9406166  58.8961914
  45.1444007  41.6332889  60.2465122  49.2042817  61.2473951  54.3555277
  48.5304515  61.5505648  54.9640235  49.5908639  62.0503031  54.0060734
  48.4201273  48.7439082  63.8452946  47.5023835  48.9654029  63.6874634
  48.8361417  48.8185393  62.9864654  49.2036321  50.1430498  58.9755627
  49.9508140  50.6551895  58.6662749  49.4727911  49.8214551  59.8360020
  47.4762971  52.6389039  55.9582581  46.5674190  52.3548071  56.0555051
  47.5058055  53.0588117  55.0985888  52.7082239  56.2495628  59.7273749
  52.2544566  55.4086538  59.7838939  52.0776205  56.8857026  60.0648529
  51.6515158  47.1787614  60.9574416  50.9137915  46.6665000  61.2884659
  51.9041932  46.7387996  60.1457693  51.1515178  58.0872125  60.6623567
  51.4438152  58.6477182  59.9435932  51.6613798  58.3800686  61.4176726
  51.7526785  39.9563866  61.5516185  52.0585662  39.0961230  61.2642100
  52.4779390  40.5481486  61.3515179  38.0451142  50.3594553  59.9397783
  37.8475541  49.7663913  59.2148850  37.4897806  50.0546763  60.6573722
  46.0247865  50.2517659  62.0592376  46.0796475  49.2991496  61.9834853
  45.2139067  50.4077098  62.5433675  47.1739059  54.1797782  53.2970660
  46.7358489  53.4633641  52.8376297  47.9149500  54.4073897  52.7355751
  43.9640225  48.8694719  59.8182755  43.1508091  49.1688890  60.2247947
  44.4599219  48.4750408  60.5357237  46.1148803  58.8652476  61.7517020
  46.0724982  59.0913322  60.8225552  47.0311502  58.6315850  61.9002821
  55.2912174  52.4554979  59.3546978  55.1530072  52.6456575  58.4268167
  54.9348393  53.2174362  59.8115029  43.4554300  46.4413074  65.4343990
  44.0953679  46.3001834  64.7366953  42.6231830  46.1547588  65.0582592
  44.2314604  55.7415505  61.5478983  45.0255202  55.2465825  61.3461558
  43.5206296  55.2133368  61.1846688  40.5397367  49.8858587  57.6238735
  39.6094955  49.8243042  57.8408697  40.6354839  49.3634539  56.8275377
  40.4582916  46.4113399  60.2116977  40.7189734  47.3258733  60.1026137
  41.2800089  45.9437842  60.3613590  41.9307842  47.8251157  67.3815801
  42.6030895  47.6168519  66.7328450  41.1037628  47.6273243  66.9421034
  47.8333414  44.4513098  69.3981462  47.1861329  45.1503047  69.3045939
  48.6034429  44.8849241  69.7657711  47.4034032  61.4153623  56.5702356
  47.5785787  60.9441667  57.3847979  46.7166820  62.0419390  56.7983617
  48.3591095  55.6926130  62.6165657  48.0240928  55.6526900  63.5123307
  47.8595041  55.0270846  62.1436068  42.3335339  51.0993760  68.1418239
  42.1955137  50.3673998  68.7429778  43.2440262  51.0102660  67.8602426
  51.2950287  53.0382164  52.8902717  50.6779457  52.3128992  52.7935770
  50.8266775  53.7991524  52.5469791  44.9617640  50.8113719  67.6301918
  45.6717258  50.1706911  67.5888537  44.9186948  51.0626614  68.5528099
  43.6746574  47.7978937  69.4497558  43.1383931  47.3469675  70.1019154
  43.0863282  47.9324846  68.7068022  43.0848833  47.2567588  52.0124021
  42.2078299  47.1356389  51.6486268  43.5606586  46.4653667  51.7602910
  34.6050973  52.0444748  62.1065529  35.2922012  51.7306478  61.5186544
  34.4499101  52.9486113  61.8332780  39.4085695  46.9334945  66.5350552
  39.3243884  46.3260614  65.8000962  38.5868401  47.4243963  66.5360049
  46.2712759  59.6093879  59.2586542  45.4880280  60.1515559  59.3524766
  46.9705504  60.1267858  59.6580783  49.5809409  45.4188508  61.9020747
  50.0778108  44.6658470  61.5821818  48.8096390  45.4552825  61.3363957
  50.6639189  54.1760195  59.4759171  49.7295468  54.2961658  59.3063875
  50.8415858  53.2732662  59.2119181  46.1644377  47.5605891  61.6292432
  45.7942165  47.0076931  62.3173337  46.6603470  46.9564025  61.0767432
  54.0511741  50.0177515  60.0109205  54.5172193  50.8505506  59.9369507
  54.5019241  49.5522496  60.7154463  52.1187972  56.3621336  57.0095357
  52.3947816  56.2477930  57.9189231  51.2492471  55.9638821  56.9707530
  52.0228403  42.3858102  64.0500106  51.1091483  42.6162328  64.2182313
  52.4521505  42.4696546  64.9014139  48.7542036  60.6107687  60.6528170
  48.9364430  59.7929343  61.1155923  49.5775022  60.8275379  60.2153060
  49.0884201  59.5375872  57.9143219  49.6171968  59.0268326  57.3013381
  49.3512421  59.2218402  58.7788752  39.5901294  57.5539741  65.6578553
  40.1754731  56.8083429  65.7906457  39.3926132  57.8643698  66.5415216
  42.4439949  60.5890989  60.6740995  41.7750325  61.0737116  60.1905035
  42.3052819  60.8360209  61.5884373  34.1818949  50.1245341  64.3782996
  34.2203048  49.5908932  65.1720114  33.6759242  49.5980547  63.7593973
  41.5609711  44.9709882  67.8745538  41.6251038  45.8324713  67.4622936
  41.4976831  44.3583883  67.1417896  41.0361984  47.0433014  71.5218572
  41.6634022  46.6610092  72.1356097  40.1789902  46.8247216  71.8874265
  37.8127526  48.8509443  57.4536927  38.1080967  47.9420122  57.4003981
  36.9115562  48.8297183  57.1317929  41.3421773  46.9265440  63.4364476
  40.6208359  47.5401408  63.2971949  42.1315029  47.4623205  63.3581122
  44.1448087  44.2619867  69.7105127  44.6682489  44.5082163  70.4731437
  43.9260420  45.0939901  69.2908265  39.5415368  46.5323541  57.5776252
  39.2128074  45.6520920  57.3951358  39.8954739  46.4771210  58.4652641
  48.7894947  58.1678444  62.0871238  48.6419909  57.2395151  62.2678808
  49.6148440  58.1898535  61.6028313  42.6557191  46.8196511  57.9451730
  42.9953264  47.3482432  57.2230338  43.1029312  47.1576917  58.7210296
  45.3500632  45.2033562  67.3954798  45.0097452  44.4041375  67.7975478
  44.6439638  45.5035272  66.8231631  46.0017104  42.2882874  65.8482121
  46.8243173  41.8143352  65.7261011  46.2455167  43.0673358  66.3480807
  48.7856461  46.0216281  57.0803355  49.0020076  46.9040919  56.7792183
  48.3050528  45.6302495  56.3508997  43.5255683  48.9801995  63.6574100
  43.3800263  49.2942298  64.5498381  43.0480886  49.5986895  63.1044998
  45.3852065  45.9704543  63.7054989  45.3713634  45.0745636  63.3687287
  46.1024494  45.9775206  64.3393275  47.2378196  46.4041883  65.7508117
  46.9795974  47.3258954  65.7492447  46.7063236  46.0072317  66.4408581
  52.1824385  59.5092670  58.5298202  52.3561262  58.9439093  57.7772054
  52.6753276  60.3093565  58.3477692  38.0001345  51.5207339  66.5961761
  37.4554813  52.2967147  66.7282035  38.8780695  51.8678144  66.4380882
  44.7888961  44.8518923  58.9742559  44.9104873  43.9235569  59.1733447
  44.4991004  44.8657609  58.0620875  47.6580152  42.5373833  62.1109279
  47.6801849  42.6013167  61.1561259  48.0748211  41.6978342  62.3049785
  58.0363776  52.2729093  60.1488502  58.4794922  51.5236418  59.7507625
  57.1590286  52.2639229  59.7662234  53.1699557  58.8259434  55.6295100
  53.8650462  59.4466127  55.8482415  53.5122707  57.9754786  55.9047478
  38.7867367  50.6477235  69.4891918  38.0449103  50.7959871  70.0756548
  38.4660111  50.9085501  68.6258667  55.0690980  56.2759140  57.1582431
  55.5942305  56.6146413  56.4331751  54.9813333  55.3406155  56.9745566
  39.2323980  58.5342664  61.5202312  40.0582000  58.2346436  61.1400956
  38.8818032  57.7650287  61.9692101  44.2005513  57.8869132  63.5899986
  43.5785523  57.2239837  63.2902214  44.8710380  57.9130264  62.9073634
  37.4332585  56.4528991  62.4791246  36.5964494  56.0251165  62.2975247
  37.4056231  56.6461434  63.4162037  43.7619020  56.4373056  57.0658446
  43.9107141  57.1208520  56.4125119  44.5685464  56.4178146  57.5807902
  41.5171653  52.4638233  58.0719515  41.2717695  51.5600563  58.2699725
  41.6867568  52.4655384  57.1298993  49.2068363  43.3361910  67.4544271
  49.7250307  44.0722937  67.1290759  48.8523496  43.6425903  68.2891030
  40.7867301  48.1966591  55.5705677  40.0936546  48.2710946  54.9145713
  40.5419053  47.4326935  56.0927194  49.4580957  39.7562192  62.9745168
  49.7382711  39.0885381  63.6005594  50.2431564  39.9491288  62.4619831
  47.2614426  58.9321186  54.5370194  46.6888393  59.5511373  54.0840666
  47.8347219  59.4820548  55.0710116  51.3504195  45.2635409  66.9076144
  50.7554127  45.5440422  66.2122632  51.0653892  45.7529310  67.6792885
  50.4811686  59.2158336  55.6678776  51.4142359  59.1503898  55.8711652
  50.3934898  60.0514603  55.2093309  53.1099702  58.5324207  52.6282724
  53.0313334  58.1984070  53.5218482  53.9309369  59.0245975  52.6274196
  47.6461224  50.2681999  51.8786246  48.5920329  50.1388207  51.9474664
  47.2675469  49.5296661  52.3555674  53.6183109  41.9338005  61.8413138
  53.4207930  41.6253093  62.7256470  54.2282814  42.6599644  61.9711068
  45.8304141  48.1931975  51.8141132  44.9235597  47.8965088  51.8903845
  46.1080122  47.8961793  50.9475418  36.7482082  49.5138339  62.2640178
  36.4284866  48.6603647  61.9714552  36.2015510  49.7286917  63.0198145
  40.5261989  52.2300780  65.9809684  40.7447999  53.1617887  65.9997718
  40.9387763  51.8708754  66.7664488  47.4466207  42.7368865  57.9685373
  46.6366936  42.3915950  58.3440619  48.1350624  42.4276409  58.5572984
  49.3756755  41.8146912  59.5909669  49.9287794  42.2342365  60.2499693
  49.6126842  40.8882660  59.6332625  44.6002926  45.0518910  51.9553111
  45.4622090  45.3773809  52.2148928  44.7853270  44.2650406  51.4426177
  36.6170342  53.1341250  64.2333300  35.9233813  52.7195203  63.7203254
  37.3643333  53.1761787  63.6366718  52.7535563  43.9247437  59.0988334
  52.1734232  44.5832241  58.7166386  52.4871495  43.1024782  58.6875751
  51.2039129  43.3252495  61.3009654  51.7038907  43.4369029  60.4923973
  51.8474737  43.0213547  61.9410463  38.5307084  53.0659504  62.1099314
  38.5077772  53.1647191  61.1581197  38.8407721  53.9124655  62.4316481
  41.1894462  55.1235659  66.2245929  42.1437716  55.0919601  66.1575860
  40.9906986  54.6626283  67.0396155  51.5360441  46.0847527  58.1544682
  50.6486296  46.3697178  57.9364877  51.9514430  45.9241291  57.3071959
  54.8874977  46.1094048  61.8699021  55.6635367  46.5990501  62.1423638
  54.1623111  46.5352102  62.3270891  57.3247535  46.8221668  62.9272962
  57.9192026  46.5817403  62.2166270  57.3974119  46.1028798  63.5546498
  39.5444691  60.6655278  63.2416127  39.4099159  59.9055679  62.6754125
  39.1276753  61.3896178  62.7744916  50.6803654  55.8492202  52.2492702
  51.3839504  56.0542204  52.8650358  49.9566303  56.4168964  52.5141785
  51.5101464  51.6002063  58.3694972  51.4536666  52.0570615  57.5302605
  52.0629807  50.8392748  58.1917815  55.3206270  47.3891795  59.1945092
  55.0643204  46.9888431  60.0253299  54.6959138  48.1035589  59.0695231
  59.6318608  50.1287868  61.7016383  59.0718166  50.1981058  62.4747945
  59.0262111  49.9528853  60.9815879  52.5890351  56.2874731  54.2991162
  53.4235955  55.8555930  54.1168637  52.4274694  56.1156745  55.2268057
  52.2436244  52.7906845  55.6647501  52.1885047  52.6251116  54.7235945
  51.6182299  53.4982877  55.8209691  37.0328759  48.0274909  69.4908924
  37.6787622  47.5173863  69.9796149  36.8245910  48.7643591  70.0652349
  49.3684489  38.8857730  59.4978757  48.6016884  38.3316217  59.6435439
  49.7795194  38.9579599  60.3592908  55.7272612  65.5260058  53.6624804
  55.9798133  65.0041579  52.9008267  54.7897171  65.3626203  53.7651487
  57.4305929  61.9188211  54.5657216  57.5980331  62.7868447  54.9327687
  57.2403098  62.0815492  53.6418506  54.0504207  62.7412278  54.8126115
  53.2141519  63.0786965  55.1335389  53.9108976  62.6061258  53.8753252
  56.0257287  57.5849066  59.5205299  55.3721700  57.2698084  58.8961914
  55.9837762  56.9624807  60.2465122  57.1368492  67.8668361  51.4358591
  56.2295554  67.6357615  51.6349740  57.6339524  67.0705981  51.6232572
  51.3791122  65.2150504  57.6238735  50.4488710  65.1534960  57.8408697
  51.4748594  64.6926457  56.8275377  53.9242587  62.5859506  52.0124021
  53.0472053  62.4648307  51.6486268  54.4000340  61.7945584  51.7602910
  48.6521281  64.1801361  57.4536927  48.9474722  63.2712040  57.4003981
  47.7509317  64.1589101  57.1317929  50.3809122  61.8615459  57.5776252
  50.0521829  60.9812838  57.3951358  50.7348493  61.8063128  58.4652641
  55.4819093  60.6463050  56.1445023  56.2027455  61.0244303  55.6408739
  54.8584397  61.3651927  56.2480001  51.6261055  63.5258509  55.5705677
  50.9330300  63.6002864  54.9145713  51.3812807  62.7618852  56.0927194
  58.4854979  65.5973917  51.8786246  59.4314084  65.4680125  51.9474664
  58.1069224  64.8588578  52.3555674  56.6697896  63.5223893  51.8141132
  55.7629351  63.2257006  51.8903845  56.9473877  63.2253711  50.9475418
  58.2859962  58.0660783  57.9685373  57.4760690  57.7207868  58.3440619
  58.9744379  57.7568326  58.5572984  55.4396681  60.3810828  51.9553111
  56.3015845  60.7065726  52.2148928  55.6247025  59.5942324  51.4426177
  56.3926124  57.6206871  55.2432820  56.3804793  58.5648711  55.4001091
  57.2849545  57.4377017  54.9492281  28.6993364  -2.1769248  51.1191645
  29.3371774  -2.2962501  50.4154985  28.5814207  -1.2288404  51.1779598
  25.5083071  -2.2241820  51.0553170  25.1701582  -2.3400755  50.1673705
  26.3772839  -2.6250655  51.0354176  21.3669886  -0.3706344  47.0450061
  20.8034751  -0.4616407  46.2766349  21.2522281  -1.1906439  47.5252554
  18.9134318   1.1244848  49.8834282  19.7055610   0.7835673  49.4680581
  19.1530968   1.2339823  50.8036435  26.9469445   3.2964624  42.3564526
  26.2957425   3.8818705  41.9698540  27.7413808   3.8270819  42.4159563
  20.8725072   0.3853761  42.7551660  21.6455948  -0.1617252  42.6164536
  21.2250471   1.2498011  42.9666122  23.6366322  -0.9093008  52.5519919
  24.2329894  -1.1336986  51.8376882  23.6941293  -1.6508262  53.1545367
  23.2091350  -3.4553573  40.3870110  23.4616871  -3.9772051  39.6253573
  22.2715909  -3.6187427  40.4896794  28.4244710   0.9855056  42.8933510
  27.7890543   1.0589683  43.6054415  28.0942117   1.5748655  42.2152590
  22.9287639  -1.5525467  42.5894485  22.8123897  -2.2280563  43.2575570
  23.0389899  -2.0393093  41.7726638  25.2719180  -2.0915320  46.2941174
  24.9077387  -2.6184699  47.0054096  26.1286296  -2.4816851  46.1207660
  27.6700000   1.3991559  52.9568353  27.3700723   2.3016598  52.8484161
  27.3251059   1.1323742  53.8089506  21.1212481  -2.1494644  48.9905058
  20.1962978  -2.2818430  49.1982749  21.3696895  -1.3700425  49.4875000
  24.8913888  -4.6067762  42.2749190  24.7713513  -4.1610712  43.1134670
  24.1966476  -4.2582445  41.7162728  22.6520780   8.1635879  45.9239321
  22.5744809   9.1143704  46.0027802  22.0482423   7.8181752  46.5814247
  29.1968536   0.8479529  50.4943105  28.5677398   1.0125243  49.7919173
  28.8094198   1.2621139  51.2654069  33.0757768   1.7833967  47.8487469
  32.3908806   2.1632868  47.2984502  33.1601617   2.3929294  48.5819417
  30.3308699  -0.5706074  54.4482813  30.5425595   0.0725686  53.7717194
  30.2838448  -1.4043757  53.9804743  24.7496498   0.5853937  47.7593190
  25.2134843   0.8641640  46.9697813  24.4853296  -0.3162618  47.5766281
  21.6420579   0.1325419  50.6972954  22.2121936   0.5612687  50.0590438
  22.2328691  -0.1491996  51.3957139  23.6865384  -3.2922910  44.5682756
  24.3889427  -2.8401867  45.0356682  23.3546012  -3.9339091  45.1962649
  31.4454527   2.3065882  52.6205170  32.2671971   1.9046069  52.3387852
  31.4416930   2.2034116  53.5721286  25.2111131   1.8549925  54.7765880
  25.2755563   2.3170332  55.6124052  24.5022055   1.2247290  54.9048190
  24.9259149   3.5218032  44.6444861  24.7904823   4.3669568  45.0729709
  25.4668961   3.7237310  43.8810795  18.3788546   1.0393470  45.2172786
  18.8913066   1.8336721  45.3678350  19.0311259   0.3419761  45.1506387
  20.1883431   4.1559227  47.2995539  20.3650059   5.0777191  47.1116523
  20.9840264   3.8417646  47.7289919  21.3114746   5.6737400  53.3005881
  21.8622171   5.5454464  52.5282875  20.4726222   5.9732289  52.9500774
  28.6508863   4.4244399  56.8026604  28.6327338   5.2453280  56.3106873
  29.5728783   4.2998474  57.0276745  28.2401895  -2.9642795  41.6816189
  27.7248518  -2.1938190  41.9204577  27.9679203  -3.6377659  42.3049251
  33.2136169  -0.2110440  43.6169363  32.4365612  -0.5499281  43.1724525
  33.8927650  -0.2057817  42.9424328  26.4734630   1.0674521  45.1568924
  25.9455991   0.3327280  44.8442162  25.9722133   1.8449197  44.9108893
  31.4527476  -0.7376459  50.2735971  30.7951150  -0.0477197  50.3616099
  32.2567875  -0.3480027  50.6169957  30.2632935  -2.3832086  48.3239913
  30.7764816  -1.7502094  48.8261622  30.9134159  -2.9830891  47.9583273
  24.6187230  -1.1145269  38.1603897  23.7114292  -1.3456016  38.3595046
  25.1158262  -1.9107650  38.3477879  27.5255309   7.5952238  41.0800584
  26.8517008   7.8983935  41.6885541  27.9121131   8.3981319  40.7306041
  26.7413766  -4.9082631  50.5698253  25.8236327  -4.6867684  50.4119941
  27.1573909  -4.8336320  49.7109960  27.5248813  -3.5091215  45.7000933
  28.2720632  -2.9969818  45.3908055  27.7940403  -3.8307162  46.5605327
  25.7975463  -1.0132674  42.6827888  24.8886683  -1.2973641  42.7800357
  25.8270547  -0.5933596  41.8231194  31.0294731   2.5973915  46.4519055
  30.5757058   1.7564825  46.5084246  30.3988698   3.2335314  46.7893835
  29.4727670   4.4350412  47.3868873  29.7650644   4.9955469  46.6681239
  29.9826291   4.7278973  48.1422032  24.3460358  -3.4004054  48.7837683
  24.4008967  -4.3530217  48.7080160  23.5351560  -3.2444614  49.2678981
  25.4951551   0.5276070  40.0215966  25.0570981  -0.1888072  39.5621604
  26.2361992   0.7552184  39.4601058  24.4361295   5.2130763  48.4762326
  24.3937474   5.4391609  47.5470859  25.3523994   4.9794138  48.6248128
  33.6124666  -1.1966733  46.0792285  33.4742565  -1.0065137  45.1513474
  33.2560885  -0.4347351  46.5360336  33.6394046   0.8709794  51.0903556
  34.0730552   0.7785083  51.9386610  34.3525626   0.8467294  50.4523572
  22.5527096   2.0893792  48.2724289  23.3467695   1.5944112  48.0706864
  21.8418788   1.5611655  47.9091995  27.3721941   4.4711888  52.6236657
  27.4258963   5.0402824  53.3914373  26.5036722   4.6413773  52.2590694
  34.5009595   0.9133494  53.6236442  34.6945485   1.8179305  53.8695717
  34.4010213   0.4540913  54.4575027  26.3310040  -1.3627850  54.1823589
  27.2602100  -1.2116691  54.0092556  25.9101070  -1.2743829  53.3272235
  25.1298372   2.6622814  51.9522126  24.9909458   2.2941599  52.8248064
  24.3412968   3.1770454  51.7806084  25.7246524   7.7631911  43.2947663
  25.8998280   7.2919954  44.1093286  25.0379312   8.3897677  43.5228924
  26.6803587   2.0404417  49.3410964  26.3453420   2.0005187  50.2368614
  26.1807533   1.3749133  48.8681374  29.6162779  -0.6139549  39.6148024
  28.9991950  -1.3392721  39.5181076  29.1479267   0.1469811  39.2715098
  31.2716911   4.0959360  57.2753804  31.2129457   3.4118580  56.6084387
  31.6736429   4.8378350  56.8234430  20.2907609  10.9121273  50.0687523
  20.5304208  11.5439798  50.7466542  19.4476806  10.5609313  50.3552882
  31.2734318   2.0598943  55.5067784  30.3861097   1.7224865  55.6294183
  31.8432869   1.3281975  55.7436549  24.8035471   6.7200396  52.4729027
  24.7305643   7.5255367  52.9848332  24.3612864   6.9192362  51.6477048
  24.5925251   5.9572166  45.9831849  23.8092773   6.4993846  46.0770073
  25.2917996   6.4746145  46.3826090  27.2634155   6.6187230  54.6287186
  27.9762127   7.2534695  54.5563087  26.7724183   6.7151096  53.8127187
  28.9851682   0.5238483  46.2004477  28.0507960   0.6439945  46.0309182
  29.1628350  -0.3789051  45.9364487  22.3146068   4.3681673  55.4492756
  23.0155528   5.0018156  55.6022151  21.8441183   4.7096405  54.6888396
  30.4400464   2.7099623  43.7340663  30.7160308   2.5956218  44.6434538
  29.5704963   2.3117108  43.6952837  30.1147354  -3.0773719  53.2745307
  29.4618804  -2.8297812  52.6197760  30.4927734  -3.8909581  52.9407784
  27.0754528   6.9585974  47.3773477  27.2576923   6.1407630  47.8401229
  27.8987514   7.1753666  46.9398367  27.4096694   5.8854159  44.6388526
  27.9384460   5.3746614  44.0258688  27.6724913   5.5696689  45.5034059
  17.9113786   3.9018028  52.3823859  18.4967223   3.1561716  52.5151763
  17.7138625   4.2121985  53.2660523  20.7652442   6.9369276  47.3986302
  20.0962817   7.4215403  46.9150342  20.6265311   7.1838496  48.3129680
  24.9057710   8.9713019  53.9968960  25.4576018   9.1344641  54.7618045
  25.2463904   9.5617457  53.3248985  28.0426097   6.9194995  50.9832642
  27.9177237   6.1184735  50.4743588  28.7005189   7.4141188  50.4946612
  30.1061006   4.7204015  52.6112192  29.1591341   4.6009366  52.5390519
  30.4543779   3.8326513  52.6938454  27.1107439   4.5156731  48.8116544
  26.9632402   3.5873439  48.9924114  27.9360933   4.5376822  48.3273620
  30.7141561   5.3385290  49.8981417  31.6388108   5.1328151  49.7605868
  30.5456864   5.0901691  50.8070759  30.5036877   5.8570957  45.2543509
  30.6773755   5.2917380  44.5017361  30.9965768   6.6571852  45.0722999
  31.4912050   5.1737722  42.3540407  32.1862954   5.7944414  42.5727722
  31.8335200   4.3233073  42.6292785  33.3903473   2.6237427  43.8827738
  33.9154797   2.9624700  43.1577058  33.3025825   1.6884443  43.6990872
  25.0523521   6.5371501  56.0117614  25.3610648   6.2920648  56.8840314
  25.8499003   6.7418139  55.5236484  25.0744133   8.6909410  48.2422991
  24.6349124   8.1985789  48.9355848  25.8252250   8.1482378  48.0015066
  17.5536472   4.8820951  48.2447619  18.3794492   4.5824723  47.8646262
  17.2030524   4.1128574  48.6937408  22.5218006   4.2347420  50.3145292
  21.8998015   3.5718125  50.0147520  23.1922873   4.2608551  49.6318940
  15.7545078   2.8007278  49.2036552  14.9176986   2.3729452  49.0220554
  15.7268723   2.9939721  50.1407344  33.0797379   3.2570331  59.1878936
  32.2892923   3.2394470  58.6483435  32.8430733   3.7958625  59.9427972
  33.1995254   0.1062797  56.5011664  33.2493259  -0.0587195  57.4427187
  33.0909177  -0.7609944  56.1109545  22.0831513   2.7851343  43.7903753
  22.2319633   3.4686807  43.1370426  22.8897956   2.7656433  44.3053209
  34.7013451   2.5259739  56.7453686  34.4098259   2.8889719  57.5817147
  34.0885582   1.8126747  56.5667018  35.9009133   0.0912619  49.2656256
  36.7356024   0.5302423  49.4293816  36.0368262  -0.3848728  48.4464502
  32.9500639  -2.3507647  55.2133744  33.4254761  -2.1580000  54.4052595
  32.0266204  -2.2948461  54.9677127  19.8384146  -1.1883479  44.7964822
  19.5930187  -2.0921149  44.9945032  20.0080060  -1.1866329  43.8544300
  25.5826918   5.2799473  41.2615500  25.0100885   5.8989660  40.8085972
  26.1559712   5.8298835  41.7955422  28.8024178   5.5636623  42.3924083
  29.7354851   5.4982185  42.5956958  28.7147391   6.3992890  41.9338615
  31.4312195   4.8802494  39.3528030  31.3525826   4.5462357  40.2463788
  32.2521861   5.3724262  39.3519503  25.9673717  -3.3839714  38.6031553
  26.9132821  -3.5133506  38.6719971  25.5887962  -4.1225052  39.0800981
  16.8519577  -0.5862209  48.8344621  16.8290265  -0.4874522  47.8826504
  17.1620213   0.2602942  49.1561787  17.8657183   7.0133566  49.9661433
  17.7311651   6.2533967  49.3999431  17.4489246   7.7374466  49.4990222
  29.0016146   2.1970489  38.9738009  29.7051996   2.4020492  39.5895664
  28.2778795   2.7647251  39.2387092  29.8313957  -2.0519650  45.0940279
  29.7749158  -1.5951098  44.2547911  30.3842299  -2.8128965  44.9163122
  21.0226309   7.9102883  50.1779876  20.9058693   8.8548315  50.0758566
  20.2018755   7.6076444  50.5665675  30.9102844   2.6353018  41.0236469
  31.7448448   2.2034217  40.8413943  30.7487187   2.4635032  41.9513363
  30.5648736  -0.8614868  42.3892808  30.5097540  -1.0270597  41.4481252
  29.9394791  -0.1538835  42.5454998  22.0480823   8.5631145  53.3935804
  22.9508070   8.5954755  53.7102299  21.8218193   7.6331596  53.4082140
  23.8034425   7.3162131  50.0545883  22.8530056   7.3163993  49.9410255
  24.1066911   6.5694866  49.5381918  39.5387119  13.1522670  51.1191645
  40.1765529  13.0329417  50.4154985  39.4207962  14.1003514  51.1779598
  36.3476825  13.1050098  51.0553170  36.0095337  12.9891162  50.1673705
  37.2166593  12.7041263  51.0354176  36.8296608  14.2584949  57.0139376
  36.8185249  13.8637748  56.1419879  36.9917248  13.5251022  57.6073147
  33.5503869  17.0422061  55.9618560  33.2593735  17.9467692  55.8465226
  34.1860854  17.0838589  56.6762629  34.4760076  14.4198910  52.5519919
  35.0723648  14.1954932  51.8376882  34.5335048  13.6783655  53.1545367
  34.0485104  11.8738345  40.3870110  34.3010625  11.3519866  39.6253573
  33.1109664  11.7104490  40.4896794  39.0928387  10.8774123  48.1944853
  39.8791477  10.4593547  47.8435270  39.3567092  11.7820216  48.3626502
  44.4936814  10.8149357  49.0977832  45.2261986  10.2448573  49.3315661
  43.7376170  10.4270957  49.5384338  33.7681393  13.7766451  42.5894485
  33.6517651  13.1011354  43.2575570  33.8783653  13.2898825  41.7726638
  42.0162235   4.5270931  53.5572441  41.6845560   5.3966342  53.3333656
  41.4207848   4.2107215  54.2366471  35.7518421   8.2666498  41.2902523
  35.9192823   9.1346734  41.6572994  35.5615590   8.4293779  40.3663812
  38.5093754  16.7283477  52.9568353  38.2094477  17.6308516  52.8484161
  38.1644814  16.4615660  53.8089506  41.9090898   9.2466017  50.6365791
  41.0007775   9.1781425  50.3424552  41.8578494   9.7237962  51.4647616
  35.7307642  10.7224155  42.2749190  35.6107267  11.1681206  43.1134670
  35.0360230  11.0709473  41.7162728  35.9831764  10.6655662  58.5800688
  35.2065098  11.2249583  58.5703553  36.6222327  11.1512445  59.1015558
  43.7752545   7.4482455  52.4143665  43.1326925   7.7414988  51.7683459
  43.2707473   7.3335376  53.2196861  41.4292708  11.1945628  43.1029524
  42.3410564  11.4273015  42.9277221  40.9202355  11.7782673  42.5404602
  34.2378136  13.4741116  58.1418655  34.9792821  14.0126160  57.8653479
  33.5315122  14.1007405  58.2990207  39.7133476  15.6170256  56.7390816
  40.1216832  15.1752667  55.9945449  38.9910737  15.0422884  56.9925009
  36.0664546  10.5542863  54.1124373  36.9125741  10.9782277  54.2559022
  36.0063184   9.8976487  54.8062936  40.0362290  16.1771447  50.4943105
  39.4071153  16.3417161  49.7919173  39.6487953  16.5913056  51.2654069
  43.9151522  17.1125885  47.8487469  43.2302561  17.4924786  47.2984502
  43.9995372  17.7221211  48.5819417  39.2163991   8.2147231  55.7705547
  38.9724923   8.9689292  55.2339823  39.4923922   8.5932579  56.6052794
  41.1702454  14.7585844  54.4482813  41.3819349  15.4017604  53.7717194
  41.1232202  13.9248160  53.9804743  38.7728683   7.3703664  51.3519385
  37.9113162   7.6684918  51.6436122  38.7991118   7.5874063  50.4200417
  34.5259138  12.0369007  44.5682756  35.2283182  12.4890051  45.0356682
  34.1939767  11.3952826  45.1962649  32.9739500  10.6280764  58.9433965
  32.3438161  11.3097045  59.1769362  32.8675588  10.5163846  57.9987103
  28.2684472  10.2952560  49.8699889  27.4783526  10.5510089  49.3940000
  28.7595720  11.1100898  49.9751930  42.2848282  17.6357799  52.6205170
  43.1065726  17.2337986  52.3387852  42.2810685  17.5326033  53.5721286
  30.2199218  10.6597139  46.8283366  29.4230381  10.7715834  47.3466861
  29.9924810  10.9983792  45.9624256  36.0504885  17.1841843  54.7765880
  36.1149318  17.6462250  55.6124052  35.3415809  16.5539207  54.9048190
  26.5522175  10.5483050  52.3014880  26.8030214  11.4330060  52.5672456
  27.0881724  10.3687652  51.5289972  50.3754275  13.9796548  48.9690141
  49.6217983  13.4103946  48.8134146  50.5101816  13.9459212  49.9160776
  35.1688204   6.3459409  58.8979473  35.9097917   6.9466562  58.8183935
  35.4006126   5.6037047  58.3397515  30.3129542  11.5315776  57.1757702
  30.1983057  10.6301033  57.4764801  29.4574059  11.7779473  56.8242519
  37.3921379  19.4733517  58.7745203  36.9485234  18.6869895  58.4566107
  38.0538593  19.6612667  58.1089094  32.1508501  21.0029318  53.3005881
  32.7015926  20.8746381  52.5282875  31.3119976  21.3024207  52.9500774
  39.4902617  19.7536316  56.8026604  39.4721093  20.5745197  56.3106873
  40.4122538  19.6290392  57.0276745  35.9475672  17.2680446  57.6450112
  36.4804008  16.5068734  57.4149420  35.4189753  16.9754098  58.3874267
  39.1145367   2.3740512  53.1743754  38.7709636   3.2642154  53.0982865
  39.4824329   2.1842170  52.3113339  39.0795649  12.3649123  41.6816189
  38.5642273  13.1353728  41.9204577  38.8072958  11.6914259  42.3049251
  36.6642760   7.2098824  46.7401428  35.8084357   6.8205674  46.5607066
  37.0769712   7.2890785  45.8801213  38.1941907   4.7445167  51.1392987
  37.6906703   4.7075302  50.3260793  38.4872514   5.6537910  51.1989644
  34.4384793   4.8283897  50.1459169  35.3037790   4.6326705  49.7865059
  34.5062302   4.5994249  51.0728526  44.0529923  15.1181478  43.6169363
  43.2759366  14.7792637  43.1724525  44.7321404  15.1234101  42.9424328
  38.8681952  10.2376215  43.5075970  38.5632088  10.5522364  44.3586114
  39.8212395  10.3157635  43.5503303  42.2921230  14.5915459  50.2735971
  41.6344905  15.2814720  50.3616099  43.0961630  14.9811891  50.6169957
  32.0447112   7.0586105  47.5175536  32.6190864   6.8361286  46.7848729
  32.6318094   7.1274799  48.2704137  41.1026689  12.9459832  48.3239913
  41.6158571  13.5789823  48.8261622  41.7527913  12.3461027  47.9583273
  32.3716699   9.0890566  41.5371421  31.5354011   9.4265252  41.8580696
  32.2321469   8.9539546  40.5998558  34.3469780   3.9327354  46.2450605
  33.6934192   3.6176371  45.6207220  34.3050254   3.3103094  46.9710428
  37.5807520  10.4209287  50.5698253  36.6630081  10.6424234  50.4119941
  37.9967664  10.4955598  49.7109960  40.8121405   8.8557819  47.6819723
  40.0744162   8.3435205  48.0129965  41.0648178   8.4158201  46.8702999
  40.9133032   1.6334071  48.2761492  41.2191909   0.7731434  47.9887407
  41.6385637   2.2251691  48.0760486  27.2057388  12.0364758  46.6643090
  27.0081788  11.4434118  45.9394156  26.6504052  11.7316968  47.3819029
  33.1246472  10.5464924  46.5428062  32.3114337  10.8459094  46.9493254
  33.6205466  10.1520613  47.2602544  38.7220684  11.0106748  55.3742956
  39.0770071  11.2378221  56.2337421  39.3692815  11.3425125  54.7520211
  44.4518421  14.1325184  46.0792285  44.3136319  14.3226780  45.1513474
  44.0954639  14.8944567  46.5360336  32.6160547   8.1183279  52.1589297
  33.2559926   7.9772039  51.4612260  31.7838077   7.8317793  51.7827899
  44.4787800  16.2001711  51.0903556  44.9124307  16.1077000  51.9386610
  45.1919381  16.1759212  50.4523572  38.2115695  19.8003805  52.6236657
  38.2652717  20.3694742  53.3914373  37.3430476  19.9705690  52.2590694
  29.7003614  11.5628792  44.3484042  28.7701202  11.5013247  44.5654004
  29.7961086  11.0404744  43.5520683  29.6189163   8.0883604  46.9362284
  29.8795980   9.0028938  46.8271444  30.4406335   7.6208047  47.0858896
  31.0914088   9.5021362  54.1061108  31.7637142   9.2938724  53.4573757
  30.2643875   9.3043448  53.6666340  45.3403350  16.2425412  53.6236442
  45.5339240  17.1471222  53.8695717  45.2403968  15.7832831  54.4575027
  36.9939660   6.1283302  56.1226769  36.3467575   6.8273252  56.0291245
  37.7640676   6.5619446  56.4903017  40.4018458  16.3932155  59.1977322
  40.2503965  16.1642706  58.2807406  40.3923138  17.3502756  59.2108667
  37.1703795  13.9664067  54.1823589  38.0995855  14.1175227  54.0092556
  36.7494825  14.0548088  53.3272235  31.4941586  12.7763965  54.8663545
  31.3561384  12.0444203  55.4675084  32.4046509  12.6872865  54.5847733
  34.1223886  12.4883924  54.3547225  34.8323505  11.8477116  54.3133843
  34.0793195  12.7396819  55.2773406  42.1110665  19.4251277  57.2753804
  42.0523211  18.7410497  56.6084387  42.5130183  20.1670267  56.8234430
  32.8352820   9.4749142  56.1742864  32.2990177   9.0239880  56.8264461
  32.2469529   9.6095051  55.4313329  32.2455079   8.9337793  38.7369328
  31.3684546   8.8126594  38.3731575  32.7212832   8.1423871  38.4848217
  42.1128072  17.3890861  55.5067784  41.2254851  17.0516783  55.6294183
  42.6826623  16.6573892  55.7436549  28.5691942   8.6105149  53.2595859
  28.4850130   8.0030819  52.5246269  27.7474648   9.1014168  53.2605355
  35.6429226  22.0492313  52.4729027  35.5699397  22.8547285  52.9848332
  35.2006619  22.2484279  51.6477048  38.7415655   7.0958713  48.6266054
  39.2384355   6.3428675  48.3067124  37.9702637   7.1323030  48.0609263
  46.5945413  12.7999078  50.2684345  46.5835289  13.6823794  49.8978279
  45.7262792  12.4470629  50.0738882  38.1027909  21.9479148  54.6287186
  38.8155881  22.5826612  54.5563087  37.6117938  22.0443014  53.8127187
  35.3250624   9.2376096  48.3537739  34.9548412   8.6847136  49.0418644
  35.8209717   8.6334229  47.8012739  43.2117987  11.6947719  46.7354511
  43.6778440  12.5275711  46.6614814  43.6625488  11.2292701  47.4399770
  33.1539823  19.6973591  55.4492756  33.8549282  20.3310074  55.6022151
  32.6834938  20.0388323  54.6888396  41.1834650   4.0628306  50.7745413
  40.2697730   4.2932533  50.9427620  41.6127752   4.1466751  51.6259445
  40.9541109  12.2518198  53.2745307  40.3012559  12.4994106  52.6197760
  41.3321489  11.4382337  52.9407784  37.0028682  12.9938009  59.7611344
  36.3269319  12.8932139  60.4313719  37.8256316  12.8377223  60.2247341
  28.7507541  19.2309946  52.3823859  29.3360978  18.4853634  52.5151763
  28.5532379  19.5413903  53.2660523  23.3425196  11.8015546  51.1028302
  23.3809295  11.2679137  51.8965420  22.8365488  11.2750752  50.4839279
  30.7215958   6.6480087  54.5990845  30.7857284   7.5094918  54.1868242
  30.6583078   6.0354088  53.8663203  30.1968230   8.7203219  58.2463879
  30.8240269   8.3380297  58.8601403  29.3396149   8.5017421  58.6119571
  40.5962339  19.1266194  59.8517614  41.1402243  19.7396153  59.3572569
  40.0149184  19.6845773  60.3684627  26.9733773  10.5279648  44.1782234
  27.2687214   9.6190327  44.1249287  26.0721809  10.5067388  43.8563236
  30.5028020   8.6035645  50.1609782  29.7814606   9.2171613  50.0217256
  31.2921276   9.1393410  50.0826428  40.9454760  20.0495933  52.6112192
  39.9985096  19.9301284  52.5390519  41.2937533  19.1618431  52.6938454
  33.3054334   5.9390071  56.4350434  33.8288735   6.1852368  57.1976743
  33.0866667   6.7710106  56.0153571  28.7021615   8.2093746  44.3021559
  28.3734321   7.3291125  44.1196665  29.0560985   8.1541415  45.1897948
  31.8163438   8.4966716  44.6697037  32.1559510   9.0252637  43.9475645
  32.2635558   8.8347122  45.4455603  34.5106879   6.8803767  54.1200105
  34.1703699   6.0811580  54.5220784  33.8045885   7.1805477  53.5476938
  35.1623351   3.9653079  52.5727428  35.9849420   3.4913557  52.4506318
  35.4061414   4.7443563  53.0726114  33.8031585   6.9941337  42.8690329
  34.5239948   7.3722590  42.3654046  33.1796889   7.7130214  42.9725307
  37.9462708   7.6986486  43.8048662  38.1626322   8.5811124  43.5037490
  37.4656775   7.3072700  43.0754304  32.6861929  10.6572200  50.3819406
  32.5406510  10.9712503  51.2743688  32.2087133  11.2757100  49.8290305
  34.5458312   7.6474748  50.4300296  34.5319881   6.7515841  50.0932594
  35.2630740   7.6545411  51.0638582  36.3984443   8.0812088  52.4753423
  36.1402221   9.0029158  52.4737754  35.8669483   7.6842522  53.1653887
  27.1607591  13.1977544  53.3207067  26.6161060  13.9737352  53.4527342
  28.0386941  13.5448349  53.1626189  33.9495208   6.5289128  45.6987866
  34.0711119   5.6005774  45.8978753  33.6597250   6.5427814  44.7866181
  36.8186398   4.2144038  48.8354586  36.8408095   4.2783371  47.8806565
  37.2354457   3.3748547  49.0295092  47.1970023  13.9499298  46.8733808
  47.6401169  13.2006623  46.4752932  46.3196533  13.9409434  46.4907540
  27.9473613  12.3247440  56.2137224  27.2055349  12.4730076  56.8001855
  27.6266358  12.5855706  55.3503974  44.2297227  17.9529345  43.8827738
  44.7548551  18.2916618  43.1577058  44.1419580  17.0176360  43.6990872
  35.8917276  21.8663419  56.0117614  36.2004402  21.6212565  56.8840314
  36.6892758  22.0710057  55.5236484  33.4336288   8.0421125  59.9077799
  33.4824443   8.9183248  59.5255568  33.9758802   7.4998518  59.3349442
  43.9191133  18.5862249  59.1878936  43.1286677  18.5686387  58.6483435
  43.6824488  19.1250542  59.9427972  44.0389008  15.4354715  56.5011664
  44.0887013  15.2704722  57.4427187  43.9302932  14.5681974  56.1109545
  41.3292771  11.4185643  57.8170971  42.2302634  11.2792108  57.5254969
  41.4040745  11.5840098  58.7569148  35.6635576   8.7952498  56.6624157
  34.7938885   9.0886064  56.3906746  35.8995056   9.3792943  57.3831421
  45.5407205  17.8551656  56.7453686  45.2492013  18.2181637  57.5817147
  44.9279336  17.1418665  56.5667018  46.7402887  15.4204536  49.2656256
  47.5749779  15.8594340  49.4293816  46.8762016  14.9443189  48.4464502
  43.7894393  12.9784271  55.2133744  44.2648515  13.1711917  54.4052595
  42.8659959  13.0343457  54.9677127  38.3674610   5.0132115  54.1789578
  38.8856554   5.7493142  53.8536066  38.0129743   5.3196108  55.0136337
  29.9473548   9.8736796  42.2950983  29.2542793   9.9481151  41.6391019
  29.7025299   9.1097139  42.8172500  38.6187204   1.4332397  49.6990474
  38.8988958   0.7655586  50.3250901  39.4037811   1.6261493  49.1865138
  42.4896062   9.8550031  53.4462049  43.4413485   9.9548129  53.4674273
  42.3199513   9.0628300  53.9560134  40.5110442   6.9405614  53.6321450
  39.9160374   7.2210627  52.9367939  40.2260139   7.4299515  54.4038191
  44.9684140  13.0756151  52.5604349  44.9360460  12.1372152  52.7464033
  45.5784764  13.1540188  51.8270174  45.1178629   9.8667194  52.6062632
  44.6017677   9.0825651  52.4192561  46.0018577   9.5385911  52.7709152
  42.7789356   3.6108210  48.5658445  42.5814177   3.3023298  49.4501777
  43.3889061   4.3369849  48.6956375  50.7860690  14.1372158  51.7010386
  51.5164079  13.8757446  52.2618089  50.1767636  13.4000880  51.7412454
  48.8675987  12.2780020  52.2984837  48.1409151  12.1435985  51.6901328
  48.4523274  12.5856849  53.1041555  36.6906164  15.9969950  60.0632210
  37.6109173  16.1748549  60.2572256  36.6555747  15.0525995  59.9111909
  34.9910388   9.8702180  38.5386438  34.0841844   9.5735293  38.6149152
  35.2686369   9.5731998  37.6720724  25.9088329  11.1908544  48.9885485
  25.5891113  10.3373852  48.6959859  25.3621757  11.4057122  49.7443452
  29.6868236  13.9070985  52.7054991  29.9054246  14.8388092  52.7243025
  30.0994010  13.5478959  53.4909795  36.6072454   4.4139070  44.6930679
  35.7973182   4.0686155  45.0685926  37.2956871   4.1046614  45.2818291
  38.5363002   3.4917117  46.3154976  39.0894041   3.9112570  46.9744999
  38.7733089   2.5652865  46.3577932  34.5596101   9.4804190  62.0957740
  34.4592828  10.4298547  62.0269831  34.3417644   9.1522429  61.2233810
  33.7609173   6.7289115  38.6798417  34.6228337   7.0544014  38.9394235
  33.9459517   5.9420611  38.1671483  25.7776589  14.8111455  50.9578606
  25.0840060  14.3965408  50.4448561  26.5249580  14.8531992  50.3612025
  41.9141809   5.6017642  45.8233640  41.3340478   6.2602446  45.4411693
  41.6477742   4.7794986  45.4121058  40.3645376   5.0022700  48.0254961
  40.8645154   5.1139234  47.2169280  41.0080984   4.6983752  48.6655769
  34.4227372  12.9101329  60.9122802  33.9394453  13.7101689  61.1186691
  34.5088311  12.9209274  59.9590246  30.3500709  16.8005864  52.9491235
  31.3043963  16.7689806  52.8821167  30.1513233  16.3396488  53.7641461
  30.9400091  15.3706980  55.5162033  31.7592980  15.8651059  55.5396870
  31.2136899  14.4538948  55.4879601  40.6966687   7.7617732  44.8789989
  39.8092542   8.0467383  44.6610183  41.1120676   7.6011496  44.0317266
  44.0481223   7.7864253  48.5944328  44.8241614   8.2760706  48.8668945
  43.3229358   8.2122307  49.0516197  46.4853782   8.4991872  49.6518269
  47.0798273   8.2587608  48.9411577  46.5580366   7.7799003  50.2791805
  40.6707711  13.2772268  45.0940279  40.6142912  13.7340820  44.2547911
  41.2236054  12.5162953  44.9163122  44.4812517   9.0662000  45.9190398
  44.2249451   8.6658636  46.7498606  43.8565385   9.7805794  45.7940537
  48.7924855  11.8058073  48.4261690  48.2324413  11.8751263  49.1993252
  48.1868358  11.6299058  47.7061186  26.1935005   9.7045114  56.2154230
  26.8393869   9.1944068  56.7041455  25.9852157  10.4413795  56.7897655
  38.7188398  16.7725961  61.7146371  39.5879557  16.9466614  61.3533006
  38.2395149  17.5920378  61.5922100  34.7138616   3.9685158  41.9678126
  34.7017286   4.9126998  42.1246397  35.6062038   3.7855304  41.6737588
  38.5290735   0.5627935  46.2224063  37.7623131   0.0086422  46.3680746
  38.9401440   0.6349804  47.0838215  50.3780873  28.4814587  51.1191645
  51.0159283  28.3621335  50.4154985  50.2601716  29.4295431  51.1779598
  47.1870580  28.4342015  51.0553170  46.8489091  28.3183080  50.1673705
  48.0560348  28.0333180  51.0354176  47.6690363  29.5876867  57.0139376
  47.6579003  29.1929665  56.1419879  47.8311002  28.8542940  57.6073147
  49.9322142  26.2066041  48.1944853  50.7185231  25.7885464  47.8435270
  50.1960846  27.1112133  48.3626502  55.3330569  26.1441274  49.0977832
  56.0655741  25.5740491  49.3315661  54.5769925  25.7562875  49.5384338
  46.9506689  28.5668516  46.2941174  46.5864896  28.0399137  47.0054096
  47.8073805  28.1766985  46.1207660  52.8555989  19.8562848  53.5572441
  52.5239314  20.7258259  53.3333656  52.2601603  19.5399132  54.2366471
  52.7484653  24.5757935  50.6365791  51.8401530  24.5073343  50.3424552
  52.6972248  25.0529879  51.4647616  46.8225518  25.9947580  58.5800688
  46.0458852  26.5541500  58.5703553  47.4616081  26.4804363  59.1015558
  54.6146299  22.7774373  52.4143665  53.9720679  23.0706906  51.7683459
  54.1101228  22.6627293  53.2196861  52.2686463  26.5237546  43.1029524
  53.1804319  26.7564933  42.9277221  51.7596110  27.1074590  42.5404602
  45.0771891  28.8033034  58.1418655  45.8186575  29.3418077  57.8653479
  44.3708876  29.4299322  58.2990207  50.5527230  30.9462174  56.7390816
  50.9610586  30.5044584  55.9945449  49.8304492  30.3714801  56.9925009
  46.9058300  25.8834781  54.1124373  47.7519496  26.3074194  54.2559022
  46.8456938  25.2268405  54.8062936  50.0557746  23.5439149  55.7705547
  49.8118678  24.2981210  55.2339823  50.3317676  23.9224497  56.6052794
  52.0096208  30.0877761  54.4482813  52.2213104  30.7309521  53.7717194
  51.9625957  29.2540078  53.9804743  49.6122437  22.6995582  51.3519385
  48.7506916  22.9976836  51.6436122  49.6384872  22.9165981  50.4200417
  43.8133254  25.9572682  58.9433965  43.1831915  26.6388963  59.1769362
  43.7069342  25.8455763  57.9987103  61.2148029  29.3088465  48.9690141
  60.4611738  28.7395863  48.8134146  61.3495571  29.2751130  49.9160776
  43.0913997  20.2593448  61.3059216  42.6980943  19.7059646  61.9806860
  43.9080137  20.5704026  61.6965733  46.0081958  21.6751327  58.8979473
  46.7491672  22.2758480  58.8183935  46.2399881  20.9328964  58.3397515
  41.1523296  26.8607694  57.1757702  41.0376811  25.9592951  57.4764801
  40.2967814  27.1071391  56.8242519  48.2315134  34.8025434  58.7745203
  47.7878988  34.0161813  58.4566107  48.8932347  34.9904585  58.1089094
  50.3296372  35.0828234  56.8026604  50.3114847  35.9037115  56.3106873
  51.2516292  34.9582309  57.0276745  46.7869426  32.5972364  57.6450112
  47.3197763  31.8360652  57.4149420  46.2583507  32.3046015  58.3874267
  49.9539121  17.7032430  53.1743754  49.6103390  18.5934071  53.0982865
  50.3218084  17.5134087  52.3113339  47.5036515  22.5390741  46.7401428
  46.6478111  22.1497592  46.5607066  47.9163467  22.6182702  45.8801213
  49.0335661  20.0737085  51.1392987  48.5300457  20.0367220  50.3260793
  49.3266268  20.9829827  51.1989644  54.8923678  30.4473395  43.6169363
  54.1153121  30.1084555  43.1724525  55.5715159  30.4526018  42.9424328
  49.7075707  25.5668133  43.5075970  49.4025843  25.8814282  44.3586114
  50.6606149  25.6449553  43.5503303  53.1314985  29.9207377  50.2735971
  52.4738659  30.6106638  50.3616099  53.9355384  30.3103809  50.6169957
  51.9420444  28.2751749  48.3239913  52.4552325  28.9081741  48.8261622
  52.5921668  27.6752945  47.9583273  48.4201275  25.7501205  50.5698253
  47.5023836  25.9716152  50.4119941  48.8361418  25.8247515  49.7109960
  49.2036322  27.1492620  45.7000933  49.9508141  27.6614018  45.3908055
  49.4727912  26.8276673  46.5605327  51.6515159  24.1849737  47.6819723
  50.9137916  23.6727123  48.0129965  51.9041933  23.7450118  46.8702999
  51.7526787  16.9625989  48.2761492  52.0585664  16.1023352  47.9887407
  52.4779392  17.5543609  48.0760486  46.0247866  27.2579782  48.7837683
  46.0796476  26.3053618  48.7080160  45.2139069  27.4139221  49.2678981
  49.5614438  26.3398666  55.3742956  49.9163826  26.5670139  56.2337421
  50.2086569  26.6717043  54.7520211  55.2912175  29.4617102  46.0792285
  55.1530074  29.6518698  45.1513474  54.9348394  30.2236485  46.5360336
  55.3181555  31.5293629  51.0903556  55.7518061  31.4368918  51.9386610
  56.0313135  31.5051129  50.4523572  41.9307843  24.8313279  54.1061108
  42.6030896  24.6230641  53.4573757  41.1037629  24.6335365  53.6666340
  56.1797104  31.5717330  53.6236442  56.3732994  32.4763140  53.8695717
  56.0797722  31.1124749  54.4575027  47.8333415  21.4575220  56.1226769
  47.1861330  22.1565170  56.0291245  48.6034430  21.8911364  56.4903017
  51.2412213  31.7224072  59.1977322  51.0897719  31.4934624  58.2807406
  51.2316892  32.6794674  59.2108667  48.0097549  29.2955985  54.1823589
  48.9389609  29.4467145  54.0092556  47.5888579  29.3840006  53.3272235
  42.3335340  28.1055882  54.8663545  42.1955138  27.3736121  55.4675084
  43.2440264  28.0164782  54.5847733  44.9617641  27.8175842  54.3547225
  45.6717259  27.1769034  54.3133843  44.9186949  28.0688736  55.2773406
  52.9504420  34.7543195  57.2753804  52.8916966  34.0702415  56.6084387
  53.3523938  35.4962185  56.8234430  43.6746575  24.8041059  56.1742864
  43.1383932  24.3531798  56.8264461  43.0863283  24.9386968  55.4313329
  52.9521827  32.7182779  55.5067784  52.0648606  32.3808701  55.6294183
  53.5220378  31.9865810  55.7436549  49.5809410  22.4250631  48.6266054
  50.0778109  21.6720593  48.3067124  48.8096391  22.4614947  48.0609263
  57.4339167  28.1290996  50.2684345  57.4229044  29.0115712  49.8978279
  56.5656547  27.7762547  50.0738882  54.0511742  27.0239637  46.7354511
  54.5172194  27.8567629  46.6614814  54.5019242  26.5584619  47.4399770
  52.0228405  19.3920224  50.7745413  51.1091485  19.6224451  50.9427620
  52.4521506  19.4758668  51.6259445  51.7934863  27.5810116  53.2745307
  51.1406313  27.8286024  52.6197760  52.1715243  26.7674254  52.9407784
  47.8422436  28.3229927  59.7611344  47.1663073  28.2224056  60.4313719
  48.6650070  28.1669141  60.2247341  41.5609712  21.9772004  54.5990845
  41.6251039  22.8386835  54.1868242  41.4976833  21.3646006  53.8663203
  41.0361985  24.0495137  58.2463879  41.6634024  23.6672214  58.8601403
  40.1789904  23.8309339  58.6119571  51.4356093  34.4558112  59.8517614
  51.9795997  35.0688070  59.3572569  50.8542938  35.0137691  60.3684627
  51.7848515  35.3787850  52.6112192  50.8378850  35.2593201  52.5390519
  52.1331288  34.4910348  52.6938454  44.1448088  21.2681989  56.4350434
  44.6682490  21.5144286  57.1976743  43.9260421  22.1002024  56.0153571
  45.3500633  22.2095684  54.1200105  45.0097454  21.4103497  54.5220784
  44.6439639  22.5097395  53.5476938  46.0017105  19.2944997  52.5727428
  46.8243174  18.8205475  52.4506318  46.2455169  20.0735480  53.0726114
  48.7856462  23.0278404  43.8048662  49.0020077  23.9103042  43.5037490
  48.3050530  22.6364617  43.0754304  47.2378197  23.4104006  52.4753423
  46.9795975  24.3321076  52.4737754  46.7063238  23.0134440  53.1653887
  47.6580153  19.5435956  48.8354586  47.6801850  19.6075289  47.8806565
  48.0748212  18.7040465  49.0295092  58.0363777  29.2791216  46.8733808
  58.4794923  28.5298541  46.4752932  57.1590288  29.2701352  46.4907540
  38.7867368  27.6539358  56.2137224  38.0449104  27.8021993  56.8001855
  38.4660112  27.9147624  55.3503974  44.2730042  23.3713043  59.9077799
  44.3218198  24.2475166  59.5255568  44.8152556  22.8290436  59.3349442
  54.7584888  33.9154166  59.1878936  53.9680432  33.8978305  58.6483435
  54.5218242  34.4542460  59.9427972  54.8782763  30.7646633  56.5011664
  54.9280768  30.5996640  57.4427187  54.7696686  29.8973892  56.1109545
  52.1686525  26.7477561  57.8170971  53.0696388  26.6084025  57.5254969
  52.2434500  26.9132015  58.7569148  46.5029331  24.1244415  56.6624157
  45.6332640  24.4177981  56.3906746  46.7388811  24.7084860  57.3831421
  56.3800960  33.1843574  56.7453686  56.0885768  33.5473555  57.5817147
  55.7673091  32.4710582  56.5667018  57.5796642  30.7496454  49.2656256
  58.4143533  31.1886258  49.4293816  57.7155771  30.2735107  48.4464502
  54.6288148  28.3076189  55.2133744  55.1042270  28.5003835  54.4052595
  53.7053713  28.3635375  54.9677127  49.2068364  20.3424032  54.1789578
  49.7250308  21.0785059  53.8536066  48.8523497  20.6488026  55.0136337
  49.4580959  16.7624315  49.6990474  49.7382712  16.0947504  50.3250901
  50.2431565  16.9553410  49.1865138  53.3289817  25.1841949  53.4462049
  54.2807240  25.2840046  53.4674273  53.1593267  24.3920217  53.9560134
  51.3504196  22.2697532  53.6321450  50.7554128  22.5502545  52.9367939
  51.0653893  22.7591433  54.4038191  55.8077895  28.4048068  52.5604349
  55.7754215  27.4664069  52.7464033  56.4178518  28.4832105  51.8270174
  55.9572383  25.1959112  52.6062632  55.4411432  24.4117569  52.4192561
  56.8412332  24.8677829  52.7709152  53.6183110  18.9400127  48.5658445
  53.4207931  18.6315216  49.4501777  54.2282816  19.6661766  48.6956375
  61.6254445  29.4664075  51.7010386  62.3557833  29.2049363  52.2618089
  61.0161390  28.7292797  51.7412454  59.7069742  27.6071938  52.2984837
  58.9802905  27.4727903  51.6901328  59.2917029  27.9148767  53.1041555
  47.5299918  31.3261868  60.0632210  48.4502928  31.5040467  60.2572256
  47.4949501  30.3817913  59.9111909  47.4466208  19.7430988  44.6930679
  46.6366937  19.3978073  45.0685926  48.1350625  19.4338531  45.2818291
  49.3756757  18.8209034  46.3154976  49.9287795  19.2404488  46.9744999
  49.6126843  17.8944782  46.3577932  45.3989856  24.8096108  62.0957740
  45.2986583  25.7590465  62.0269831  45.1811398  24.4814347  61.2233810
  52.7535564  20.9309560  45.8233640  52.1734233  21.5894364  45.4411693
  52.4871497  20.1086904  45.4121058  51.2039130  20.3314617  48.0254961
  51.7038909  20.4431152  47.2169280  51.8474738  20.0275670  48.6655769
  45.2621126  28.2393247  60.9122802  44.7788208  29.0393607  61.1186691
  45.3482065  28.2501192  59.9590246  41.7793846  30.6998898  55.5162033
  42.5986735  31.1942976  55.5396870  42.0530653  29.7830866  55.4879601
  51.5360442  23.0909650  44.8789989  50.6486297  23.3759301  44.6610183
  51.9514431  22.9303413  44.0317266  54.8874978  23.1156171  48.5944328
  55.6635368  23.6052623  48.8668945  54.1623112  23.5414225  49.0516197
  57.3247537  23.8283790  49.6518269  57.9192027  23.5879526  48.9411577
  57.3974120  23.1090921  50.2791805  55.3206271  24.3953918  45.9190398
  55.0643206  23.9950553  46.7498606  54.6959140  25.1097712  45.7940537
  59.6318609  27.1349991  48.4261690  59.0718167  27.2043180  49.1993252
  59.0262113  26.9590976  47.7061186  37.0328760  25.0337031  56.2154230
  37.6787623  24.5235985  56.7041455  36.8245911  25.7705713  56.7897655
  49.5582152  32.1017879  61.7146371  50.4273312  32.2758531  61.3533006
  49.0788904  32.9212296  61.5922100  45.5532370  19.2977076  41.9678126
  45.5411040  20.2418916  42.1246397  46.4455792  19.1147222  41.6737588
  49.3684490  15.8919853  46.2224063  48.6016886  15.3378339  46.3680746
  49.7795195  15.9641722  47.0838215  41.3726251  22.1804649  60.3129244
  42.2357712  21.8241453  60.5232569  40.7991662  21.8418543  61.0004649
  61.2174628  43.8106505  51.1191645  61.8553038  43.6913252  50.4154985
  61.0995471  44.7587349  51.1779598  58.0264334  43.7633933  51.0553170
  57.6882846  43.6474998  50.1673705  58.8954102  43.3625098  51.0354176
  53.8851150  45.6169409  47.0450061  53.3216015  45.5259346  46.2766349
  53.7703545  44.7969314  47.5252554  58.5084117  44.9168785  57.0139376
  58.4972758  44.5221583  56.1419879  58.6704757  44.1834857  57.6073147
  51.4315582  47.1120601  49.8834282  52.2236874  46.7711426  49.4680581
  51.6712232  47.2215576  50.8036435  59.4650709  49.2840377  42.3564526
  58.8138688  49.8694458  41.9698540  60.2595071  49.8146572  42.4159563
  55.2291378  47.7005897  55.9618560  54.9381244  48.6051527  55.8465226
  55.8648363  47.7422424  56.6762629  56.1547585  45.0782745  52.5519919
  56.7511157  44.8538767  51.8376882  56.2122557  44.3367491  53.1545367
  60.7715896  41.5357959  48.1944853  61.5578986  41.1177382  47.8435270
  61.0354601  42.4404051  48.3626502  60.9425974  46.9730809  42.8933510
  60.3071807  47.0465436  43.6054415  60.6123380  47.5624408  42.2152590
  66.1724323  41.4733192  49.0977832  66.9049495  40.9032409  49.3315661
  65.4163679  41.0854792  49.5384338  57.7900443  43.8960433  46.2941174
  57.4258650  43.3691054  47.0054096  58.6467559  43.5058903  46.1207660
  63.6949744  35.1854766  53.5572441  63.3633069  36.0550177  53.3333656
  63.0995357  34.8691050  54.2366471  57.4305930  38.9250333  41.2902523
  57.5980332  39.7930570  41.6572994  57.2403099  39.0877615  40.3663812
  60.1881263  47.3867312  52.9568353  59.8881986  48.2892351  52.8484161
  59.8432323  47.1199495  53.8089506  53.6393745  43.8381109  48.9905058
  52.7144241  43.7057323  49.1982749  53.8878158  44.6175328  49.4875000
  63.5878407  39.9049852  50.6365791  62.6795284  39.8365261  50.3424552
  63.5366003  40.3821797  51.4647616  55.1702043  54.1511632  45.9239321
  55.0926073  55.1019457  46.0027802  54.5663687  53.8057505  46.5814247
  57.6619273  41.3239498  58.5800688  56.8852607  41.8833418  58.5703553
  58.3009836  41.8096281  59.1015558  65.4540053  38.1066291  52.4143665
  64.8114434  38.3998824  51.7683459  64.9494982  37.9919211  53.2196861
  63.1080217  41.8529464  43.1029524  64.0198073  42.0856851  42.9277221
  62.5989864  42.4366508  42.5404602  55.9165645  44.1324951  58.1418655
  56.6580330  44.6709995  57.8653479  55.2102631  44.7591240  58.2990207
  61.3920985  46.2754092  56.7390816  61.8004341  45.8336502  55.9945449
  60.6698246  45.7006719  56.9925009  57.7452055  41.2126698  54.1124373
  58.5913250  41.6366112  54.2559022  57.6850693  40.5560323  54.8062936
  61.7149799  46.8355282  50.4943105  61.0858662  47.0000996  49.7919173
  61.3275462  47.2496892  51.2654069  65.5939031  47.7709720  47.8487469
  64.9090070  48.1508621  47.2984502  65.6782881  48.3805047  48.5819417
  60.8951500  38.8731067  55.7705547  60.6512432  39.6273127  55.2339823
  61.1711431  39.2516414  56.6052794  62.8489963  45.4169679  54.4482813
  63.0606858  46.0601439  53.7717194  62.8019711  44.5831996  53.9804743
  60.4516192  38.0287500  51.3519385  59.5900671  38.3268753  51.6436122
  60.4778627  38.2457899  50.4200417  57.2677761  46.5729690  47.7593190
  57.7316107  46.8517393  46.9697813  57.0034559  45.6713135  47.5766281
  54.1601842  46.1201172  50.6972954  54.7303199  46.5488440  50.0590438
  54.7509954  45.8383757  51.3957139  56.2046647  42.6952843  44.5682756
  56.9070691  43.1473886  45.0356682  55.8727276  42.0536662  45.1962649
  54.6527009  41.2864599  58.9433965  54.0225669  41.9680880  59.1769362
  54.5463097  41.1747681  57.9987103  63.9635791  48.2941635  52.6205170
  64.7853235  47.8921822  52.3387852  63.9598194  48.1909869  53.5721286
  57.7292394  47.8425678  54.7765880  57.7936827  48.3046085  55.6124052
  57.0203318  47.2123043  54.9048190  72.0541784  44.6380383  48.9690141
  71.3005492  44.0687781  48.8134146  72.1889325  44.6043048  49.9160776
  57.4440412  49.5093785  44.6444861  57.3086087  50.3545321  45.0729709
  57.9850225  49.7113063  43.8810795  53.9307752  35.5885365  61.3059216
  53.5374697  35.0351564  61.9806860  54.7473892  35.8995944  61.6965733
  52.7064694  50.1434980  47.2995539  52.8831322  51.0652944  47.1116523
  53.5021528  49.8293399  47.7289919  56.8475713  37.0043244  58.8979473
  57.5885426  37.6050397  58.8183935  57.0793635  36.2620882  58.3397515
  51.9917051  42.1899612  57.1757702  51.8770566  41.2884869  57.4764801
  51.1361568  42.4363308  56.8242519  59.0708888  50.1317352  58.7745203
  58.6272743  49.3453730  58.4566107  59.7326102  50.3196502  58.1089094
  53.8296010  51.6613153  53.3005881  54.3803435  51.5330217  52.5282875
  52.9907485  51.9608042  52.9500774  61.1690126  50.4120152  56.8026604
  61.1508602  51.2329033  56.3106873  62.0910047  50.2874227  57.0276745
  57.6263181  47.9264281  57.6450112  58.1591517  47.1652569  57.4149420
  57.0977262  47.6337933  58.3874267  60.7932876  33.0324347  53.1743754
  60.4497145  33.9225989  53.0982865  61.1611838  32.8426005  52.3113339
  60.7583158  43.0232958  41.6816189  60.2429782  43.7937563  41.9204577
  60.4860467  42.3498094  42.3049251  58.3430269  37.8682659  46.7401428
  57.4871866  37.4789510  46.5607066  58.7557221  37.9474620  45.8801213
  59.8729416  35.4029002  51.1392987  59.3694212  35.3659138  50.3260793
  60.1660023  36.3121745  51.1989644  56.1172302  35.4867732  50.1459169
  56.9825299  35.2910541  49.7865059  56.1849811  35.2578084  51.0728526
  65.7317432  45.7765313  43.6169363  64.9546875  45.4376472  43.1724525
  66.4108913  45.7817936  42.9424328  60.5469461  40.8960050  43.5075970
  60.2419597  41.2106200  44.3586114  61.4999904  40.9741470  43.5503303
  58.9915893  47.0550274  45.1568924  58.4637255  46.3203033  44.8442162
  58.4903396  47.8324950  44.9108893  63.9708739  45.2499294  50.2735971
  63.3132414  45.9398556  50.3616099  64.7749139  45.6395726  50.6169957
  53.7234621  37.7169940  47.5175536  54.2978373  37.4945122  46.7848729
  54.3105603  37.7858635  48.2704137  62.7814198  43.6043667  48.3239913
  63.2946080  44.2373659  48.8261622  63.4315422  43.0044862  47.9583273
  60.0436572  53.5827991  41.0800584  59.3698271  53.8859688  41.6885541
  60.4302394  54.3857072  40.7306041  59.2595029  41.0793122  50.5698253
  58.3417590  41.3008069  50.4119941  59.6755173  41.1539433  49.7109960
  60.0430077  42.4784538  45.7000933  60.7901896  42.9905935  45.3908055
  60.3121666  42.1568591  46.5605327  63.5475994  48.5849668  46.4519055
  63.0938321  47.7440578  46.5084246  62.9169961  49.2211067  46.7893835
  62.4908914  39.5141654  47.6819723  61.7531671  39.0019041  48.0129965
  62.7435687  39.0742036  46.8702999  61.9908934  50.4226165  47.3868873
  62.2831908  50.9831222  46.6681239  62.5007554  50.7154726  48.1422032
  62.5920541  32.2917906  48.2761492  62.8979418  31.4315270  47.9887407
  63.3173146  32.8835527  48.0760486  56.8641621  42.5871699  48.7837683
  56.9190231  41.6345536  48.7080160  56.0532823  42.7431139  49.2678981
  56.9542559  51.2006516  48.4762326  56.9118738  51.4267362  47.5470859
  57.8705258  50.9669891  48.6248128  60.4008193  41.6690584  55.3742956
  60.7557580  41.8962057  56.2337421  61.0480324  42.0008960  54.7520211
  66.1305930  44.7909020  46.0792285  65.9923828  44.9810616  45.1513474
  65.7742148  45.5528402  46.5360336  54.2948056  38.7767115  52.1589297
  54.9347435  38.6355874  51.4612260  53.4625586  38.4901628  51.7827899
  66.1575309  46.8585547  51.0903556  66.5911816  46.7660836  51.9386610
  66.8706890  46.8343047  50.4523572  55.0708360  48.0769545  48.2724289
  55.8648958  47.5819865  48.0706864  54.3600052  47.5487408  47.9091995
  59.8903204  50.4587641  52.6236657  59.9440226  51.0278577  53.3914373
  59.0217985  50.6289526  52.2590694  52.7701597  40.1605197  54.1061108
  53.4424651  39.9522559  53.4573757  51.9431384  39.9627283  53.6666340
  67.0190859  46.9009247  53.6236442  67.2126749  47.8055058  53.8695717
  66.9191477  46.4416666  54.4575027  58.6727169  36.7867138  56.1226769
  58.0255084  37.4857087  56.0291245  59.4428185  37.2203282  56.4903017
  62.0805967  47.0515990  59.1977322  61.9291474  46.8226542  58.2807406
  62.0710647  48.0086591  59.2108667  58.8491304  44.6247903  54.1823589
  59.7783364  44.7759062  54.0092556  58.4282334  44.7131924  53.3272235
  57.6479636  48.6498567  51.9522126  57.5090721  48.2817352  52.8248064
  56.8594232  49.1646207  51.7806084  58.2427788  53.7507664  43.2947663
  58.4179543  53.2795707  44.1093286  57.5560576  54.3773430  43.5228924
  59.1984851  48.0280170  49.3410964  58.8634683  47.9880940  50.2368614
  58.6988796  47.3624886  48.8681374  53.1729095  43.4347800  54.8663545
  53.0348893  42.7028039  55.4675084  54.0834018  43.3456700  54.5847733
  62.1344042  45.3736204  39.6148024  61.5173213  44.6483032  39.5181076
  61.6660531  46.1345564  39.2715098  55.8011395  43.1467759  54.3547225
  56.5111014  42.5060951  54.3133843  55.7580703  43.3980654  55.2773406
  63.7898174  50.0835113  57.2753804  63.7310720  49.3994333  56.6084387
  64.1917692  50.8254103  56.8234430  54.5140329  40.1332977  56.1742864
  53.9777686  39.6823716  56.8264461  53.9257038  40.2678886  55.4313329
  52.8088873  56.8997026  50.0687523  53.0485471  57.5315551  50.7466542
  51.9658069  56.5485066  50.3552882  63.7915581  48.0474696  55.5067784
  62.9042360  47.7100618  55.6294183  64.3614132  47.3157728  55.7436549
  57.3216735  52.7076149  52.4729027  57.2486906  53.5131120  52.9848332
  56.8794128  52.9068115  51.6477048  57.1106514  51.9447919  45.9831849
  56.3274036  52.4869599  46.0770073  57.8099259  52.4621899  46.3826090
  60.4203164  37.7542548  48.6266054  60.9171864  37.0012511  48.3067124
  59.6490146  37.7906865  48.0609263  68.2732922  43.4582914  50.2684345
  68.2622798  44.3407629  49.8978279  67.4050301  43.1054465  50.0738882
  59.7815418  52.6062983  54.6287186  60.4943390  53.2410448  54.5563087
  59.2905447  52.7026849  53.8127187  61.5032945  46.5114236  46.2004477
  60.5689224  46.6315698  46.0309182  61.6809614  45.6086702  45.9364487
  57.0038133  39.8959931  48.3537739  56.6335921  39.3430972  49.0418644
  57.4997226  39.2918065  47.8012739  64.8905496  42.3531555  46.7354511
  65.3565949  43.1859546  46.6614814  65.3412997  41.8876536  47.4399770
  54.8327332  50.3557426  55.4492756  55.5336791  50.9893909  55.6022151
  54.3622447  50.6972158  54.6888396  62.9581728  48.6975376  43.7340663
  63.2341571  48.5831971  44.6434538  62.0886226  48.2992861  43.6952837
  62.8622159  34.7212142  50.7745413  61.9485239  34.9516369  50.9427620
  63.2915261  34.8050586  51.6259445  62.6328618  42.9102034  53.2745307
  61.9800068  43.1577941  52.6197760  63.0108998  42.0966172  52.9407784
  59.5935792  52.9461727  47.3773477  59.7758186  52.1283383  47.8401229
  60.4168778  53.1629419  46.9398367  59.9277957  51.8729912  44.6388526
  60.4565723  51.3622367  44.0258688  60.1906177  51.5572442  45.5034059
  58.6816191  43.6521845  59.7611344  58.0056828  43.5515974  60.4313719
  59.5043825  43.4961059  60.2247341  50.4295050  49.8893781  52.3823859
  51.0148487  49.1437469  52.5151763  50.2319888  50.1997738  53.2660523
  53.2833705  52.9245029  47.3986302  52.6144080  53.4091156  46.9150342
  53.1446575  53.1714249  48.3129680  57.4238974  54.9588772  53.9968960
  57.9757282  55.1220394  54.7618045  57.7645167  55.5493210  53.3248985
  52.4003467  37.3063922  54.5990845  52.4644793  38.1678753  54.1868242
  52.3370587  36.6937924  53.8663203  51.8755739  39.3787055  58.2463879
  52.5027778  38.9964132  58.8601403  51.0183658  39.1601257  58.6119571
  62.2749848  49.7850030  59.8517614  62.8189752  50.3979988  59.3572569
  61.6936693  50.3429608  60.3684627  60.5607361  52.9070748  50.9832642
  60.4358500  52.1060488  50.4743588  61.2186452  53.4016941  50.4946612
  52.1815529  39.2619480  50.1609782  51.4602115  39.8755448  50.0217256
  52.9708785  39.7977245  50.0826428  62.6242269  50.7079768  52.6112192
  61.6772605  50.5885119  52.5390519  62.9725042  49.8202266  52.6938454
  54.9841843  36.5973907  56.4350434  55.5076244  36.8436203  57.1976743
  54.7654176  37.4293942  56.0153571  59.6288703  50.5032484  48.8116544
  59.4813665  49.5749192  48.9924114  60.4542196  50.5252575  48.3273620
  63.2322824  51.3261043  49.8981417  64.1569372  51.1203904  49.7605868
  63.0638128  51.0777444  50.8070759  56.1894388  37.5387602  54.1200105
  55.8491208  36.7395415  54.5220784  55.4833394  37.8389313  53.5476938
  56.8410859  34.6236914  52.5727428  57.6636929  34.1497393  52.4506318
  57.0848923  35.4027398  53.0726114  59.6250217  38.3570322  43.8048662
  59.8413831  39.2394960  43.5037490  59.1444284  37.9656535  43.0754304
  54.3649438  41.3156035  50.3819406  54.2194019  41.6296338  51.2743688
  53.8874642  41.9340935  49.8290305  56.2245821  38.3058583  50.4300296
  56.2107390  37.4099676  50.0932594  56.9418249  38.3129247  51.0638582
  58.0771952  38.7395923  52.4753423  57.8189730  39.6612994  52.4737754
  57.5456992  38.3426358  53.1653887  63.0218141  51.8446710  45.2543509
  63.1955018  51.2793133  44.5017361  63.5147032  52.6447605  45.0722999
  48.8395100  43.8561379  53.3207067  48.2948568  44.6321187  53.4527342
  49.7174450  44.2032184  53.1626189  58.4973907  34.8727874  48.8354586
  58.5195604  34.9367207  47.8806565  58.9141966  34.0332382  49.0295092
  68.8757532  44.6083133  46.8733808  69.3188678  43.8590458  46.4752932
  67.9984042  44.5993270  46.4907540  64.0093313  51.1613475  42.3540407
  64.7044218  51.7820167  42.5727722  64.3516463  50.3108826  42.6292785
  49.6261122  42.9831276  56.2137224  48.8842858  43.1313911  56.8001855
  49.3053867  43.2439541  55.3503974  65.9084736  48.6113180  43.8827738
  66.4336060  48.9500453  43.1577058  65.8207089  47.6760196  43.6990872
  57.5704785  52.5247254  56.0117614  57.8791911  52.2796401  56.8840314
  58.3680267  52.7293892  55.5236484  57.5925397  54.6785164  48.2422991
  57.1530387  54.1861542  48.9355848  58.3433514  54.1358131  48.0015066
  55.0399269  50.2223173  50.3145292  54.4179278  49.5593878  50.0147520
  55.7104136  50.2484304  49.6318940  55.1123797  38.7004961  59.9077799
  55.1611952  39.5767083  59.5255568  55.6546311  38.1582354  59.3349442
  65.5978642  49.2446084  59.1878936  64.8074186  49.2270223  58.6483435
  65.3611997  49.7834378  59.9427972  65.7176517  46.0938550  56.5011664
  65.7674522  45.9288558  57.4427187  65.6090441  45.2265809  56.1109545
  63.0080280  42.0769478  57.8170971  63.9090142  41.9375943  57.5254969
  63.0828254  42.2423933  58.7569148  57.3423085  39.4536333  56.6624157
  56.4726394  39.7469899  56.3906746  57.5782565  40.0376778  57.3831421
  67.2194714  48.5135492  56.7453686  66.9279522  48.8765472  57.5817147
  66.6066845  47.8002500  56.5667018  68.4190396  46.0788372  49.2656256
  69.2537288  46.5178176  49.4293816  68.5549525  45.6027025  48.4464502
  65.4681902  43.6368106  55.2133744  65.9436024  43.8295753  54.4052595
  64.5447468  43.6927292  54.9677127  60.0462119  35.6715950  54.1789578
  60.5644063  36.4076977  53.8536066  59.6917252  35.9779943  55.0136337
  60.2974713  32.0916232  49.6990474  60.5776467  31.4239422  50.3250901
  61.0825320  32.2845328  49.1865138  58.1008182  51.2675226  41.2615500
  57.5282149  51.8865414  40.8085972  58.6740975  51.8174588  41.7955422
  64.1683571  40.5133866  53.4462049  65.1200994  40.6131964  53.4674273
  63.9987022  39.7212135  53.9560134  62.1897951  37.5989450  53.6321450
  61.5947883  37.8794462  52.9367939  61.9047648  38.0883351  54.4038191
  61.3205441  51.5512377  42.3924083  62.2536114  51.4857938  42.5956958
  61.2328654  52.3868643  41.9338615  63.9493458  50.8678247  39.3528030
  63.8707090  50.5338110  40.2463788  64.7703125  51.3600015  39.3519503
  66.6471649  43.7339986  52.5604349  66.6147969  42.7955987  52.7464033
  67.2572273  43.8124023  51.8270174  66.7966138  40.5251030  52.6062632
  66.2805186  39.7409486  52.4192561  67.6806086  40.1969746  52.7709152
  64.4576865  34.2692045  48.5658445  64.2601686  33.9607133  49.4501777
  65.0676570  34.9953684  48.6956375  70.5463496  42.9363856  52.2984837
  69.8196660  42.8019821  51.6901328  70.1310783  43.2440684  53.1041555
  58.3693673  46.6553785  60.0632210  59.2896682  46.8332384  60.2572256
  58.3343256  45.7109831  59.9111909  51.3655745  44.5654820  52.7054991
  51.5841755  45.4971928  52.7243025  51.7781519  44.2062794  53.4909795
  58.2859963  35.0722905  44.6930679  57.4760691  34.7269990  45.0685926
  58.9744380  34.7630449  45.2818291  60.2150511  34.1500952  46.3154976
  60.7681550  34.5696405  46.9744999  60.4520598  33.2236700  46.3577932
  56.2383610  40.1388026  62.0957740  56.1380337  41.0882383  62.0269831
  56.0205152  39.8106265  61.2233810  63.5929318  36.2601477  45.8233640
  63.0127987  36.9186281  45.4411693  63.3265251  35.4378822  45.4121058
  62.0432885  35.6606535  48.0254961  62.5432663  35.7723069  47.2169280
  62.6868493  35.3567588  48.6655769  56.1014881  43.5685165  60.9122802
  55.6181962  44.3685525  61.1186691  56.1875820  43.5793109  59.9590246
  52.0288218  47.4589699  52.9491235  52.9831472  47.4273642  52.8821167
  51.8300742  46.9980323  53.7641461  52.6187600  46.0290815  55.5162033
  53.4380489  46.5234894  55.5396870  52.8924408  45.1122783  55.4879601
  62.3754196  38.4201568  44.8789989  61.4880051  38.7051218  44.6610183
  62.7908185  38.2595331  44.0317266  65.7268732  38.4448089  48.5944328
  66.5029123  38.9344541  48.8668945  65.0016867  38.8706143  49.0516197
  68.1641291  39.1575708  49.6518269  68.7585782  38.9171444  48.9411577
  68.2367875  38.4382838  50.2791805  61.5197410  48.1846242  38.9738009
  62.2233260  48.3896245  39.5895664  60.7960059  48.7523004  39.2387092
  62.3495220  43.9356104  45.0940279  62.2930421  44.3924655  44.2547911
  62.9023563  43.1746788  44.9163122  66.1600026  39.7245835  45.9190398
  65.9036960  39.3242471  46.7498606  65.5352894  40.4389629  45.7940537
  70.4712364  42.4641909  48.4261690  69.9111922  42.5335098  49.1993252
  69.8655867  42.2882893  47.7061186  53.5407573  53.8978636  50.1779876
  53.4239957  54.8424068  50.0758566  52.7200019  53.5952197  50.5665675
  63.4284107  48.6228771  41.0236469  64.2629711  48.1909970  40.8413943
  63.2668450  48.4510785  41.9513363  63.0829999  45.1260885  42.3892808
  63.0278803  44.9605156  41.4481252  62.4576055  45.8336918  42.5454998
  47.8722514  40.3628949  56.2154230  48.5181378  39.8527903  56.7041455
  47.6639665  41.0997631  56.7897655  60.3975907  47.4309797  61.7146371
  61.2667066  47.6050449  61.3533006  59.9182658  48.2504213  61.5922100
  54.5662087  54.5506898  53.3935804  55.4689333  54.5830508  53.7102299
  54.3399457  53.6207349  53.4082140  56.3215689  53.3037884  50.0545883
  55.3711320  53.3039746  49.9410255  56.6248175  52.5570619  49.5381918
  60.2078244  31.2211770  46.2224063  59.4410640  30.6670257  46.3680746
  60.6188949  31.2933639  47.0838215  52.2120005  37.5096566  60.3129244
  53.0751467  37.1533371  60.5232569  51.6385416  37.1710461  61.0004649
  68.8658089  59.0925851  51.0553170  68.5276600  58.9766915  50.1673705
  69.7347857  58.6917016  51.0354176  64.7244904  60.9461327  47.0450061
  64.1609769  60.8551264  46.2766349  64.6097299  60.1261232  47.5252554
  62.2709336  62.4412519  49.8834282  63.0630628  62.1003343  49.4680581
  62.5105986  62.5507494  50.8036435  64.2300090  61.7021432  42.7551660
  65.0030966  61.1550419  42.6164536  64.5825489  62.5665681  42.9666122
  66.9941340  60.4074663  52.5519919  67.5904912  60.1830685  51.8376882
  67.0516311  59.6659408  53.1545367  66.5666368  57.8614098  40.3870110
  66.8191889  57.3395619  39.6253573  65.6290927  57.6980244  40.4896794
  71.6109651  56.8649876  48.1944853  72.3972740  56.4469300  47.8435270
  71.8748355  57.7695969  48.3626502  66.2862657  59.7642204  42.5894485
  66.1698915  59.0887107  43.2575570  66.3964917  59.2774578  41.7726638
  68.6294198  59.2252351  46.2941174  68.2652405  58.6982972  47.0054096
  69.4861314  58.8350820  46.1207660  68.2699685  54.2542251  41.2902523
  68.4374087  55.1222487  41.6572994  68.0796854  54.4169533  40.3663812
  64.4787499  59.1673027  48.9905058  63.5537996  59.0349241  49.1982749
  64.7271912  59.9467246  49.4875000  68.2488905  56.7099908  42.2749190
  68.1288531  57.1556959  43.1134670  67.5541494  57.0585226  41.7162728
  61.8396310  58.8106300  49.8248847  61.9688691  59.0640779  50.7388259
  61.1593762  59.4034008  49.5053502  68.5845809  56.5418616  54.1124373
  69.4307005  56.9658030  54.2559022  68.5244447  55.8852240  54.8062936
  71.2909946  53.3579417  51.3519385  70.4294425  53.6560671  51.6436122
  71.3172381  53.5749816  50.4200417  68.1071516  61.9021608  47.7593190
  68.5709861  62.1809311  46.9697813  67.8428314  61.0005053  47.5766281
  64.9995597  61.4493090  50.6972954  65.5696954  61.8780358  50.0590438
  65.5903709  61.1675674  51.3957139  67.0440402  58.0244760  44.5682756
  67.7464445  58.4765804  45.0356682  66.7121030  57.3828579  45.1962649
  60.7865736  56.2828313  49.8699889  59.9964790  56.5385842  49.3940000
  61.2776983  57.0976651  49.9751930  62.7380481  56.6472892  46.8283366
  61.9411644  56.7591587  47.3466861  62.5106073  56.9859545  45.9624256
  59.0703439  56.5358804  52.3014880  59.3211477  57.4205813  52.5672456
  59.6062987  56.3563405  51.5289972  61.7363564  62.3561141  45.2172786
  62.2488084  63.1504391  45.3678350  62.3886277  61.6587432  45.1506387
  63.5458449  65.4726897  47.2995539  63.7225077  66.3944862  47.1116523
  64.3415282  65.1585317  47.7289919  62.8310805  57.5191529  57.1757702
  62.7164320  56.6176786  57.4764801  61.9755323  57.7655226  56.8242519
  71.6326630  48.3616265  53.1743754  71.2890899  49.2517907  53.0982865
  72.0005593  48.1717923  52.3113339  59.7012481  60.6849795  45.9932356
  60.5387703  61.0946804  45.7766064  59.8790748  59.7449238  45.9632550
  71.5976913  58.3524876  41.6816189  71.0823536  59.1229481  41.9204577
  71.3254221  57.6790012  42.3049251  69.1824024  53.1974577  46.7401428
  68.3265620  52.8081427  46.5607066  69.5950976  53.2766538  45.8801213
  70.7123170  50.7320920  51.1392987  70.2087966  50.6951055  50.3260793
  71.0053777  51.6413663  51.1989644  66.9566056  50.8159650  50.1459169
  67.8219053  50.6202458  49.7865059  67.0243565  50.5870002  51.0728526
  71.3863216  56.2251968  43.5075970  71.0813352  56.5398117  44.3586114
  72.3393658  56.3033388  43.5503303  69.8309648  62.3842191  45.1568924
  69.3031009  61.6494951  44.8442162  69.3297151  63.1616868  44.9108893
  64.5628375  53.0461858  47.5175536  65.1372127  52.8237039  46.7848729
  65.1499358  53.1150552  48.2704137  64.8897963  55.0766319  41.5371421
  64.0535275  55.4141005  41.8580696  64.7502732  54.9415299  40.5998558
  66.8651043  49.9203107  46.2450605  66.2115455  49.6052124  45.6207220
  66.8231517  49.2978847  46.9710428  67.9762248  60.2022402  38.1603897
  67.0689310  59.9711655  38.3595046  68.4733280  59.4060021  38.3477879
  70.0988783  56.4085040  50.5698253  69.1811345  56.6299987  50.4119941
  70.5148927  56.4831351  49.7109960  70.8823831  57.8076456  45.7000933
  71.6295650  58.3197853  45.3908055  71.1515421  57.4860509  46.5605327
  69.1550481  60.3034997  42.6827888  68.2461701  60.0194029  42.7800357
  69.1845565  60.7234075  41.8231194  59.7238652  58.0240511  46.6643090
  59.5263052  57.4309871  45.9394156  59.1685316  57.7192721  47.3819029
  67.7035375  57.9163617  48.7837683  67.7583985  56.9637454  48.7080160
  66.8926577  58.0723056  49.2678981  68.8526569  61.8443740  40.0215966
  68.4145999  61.1279599  39.5621604  69.5937010  62.0719855  39.4601058
  65.6427735  56.5340677  46.5428062  64.8295601  56.8334847  46.9493254
  66.1386730  56.1396366  47.2602544  65.1341810  54.1059032  52.1589297
  65.7741189  53.9647792  51.4612260  64.3019341  53.8193546  51.7827899
  65.9102114  63.4061463  48.2724289  66.7042713  62.9111783  48.0706864
  65.1993806  62.8779326  47.9091995  62.2184878  57.5504545  44.3484042
  61.2882466  57.4889000  44.5654004  62.3142350  57.0280497  43.5520683
  62.1370427  54.0759357  46.9362284  62.3977244  54.9904691  46.8271444
  62.9587599  53.6083800  47.0858896  63.6095352  55.4897115  54.1061108
  64.2818405  55.2814477  53.4573757  62.7825138  55.2919201  53.6666340
  69.5120924  52.1159056  56.1226769  68.8648839  52.8149005  56.0291245
  70.2821939  52.5495199  56.4903017  70.0378605  63.3572088  49.3410964
  69.7028438  63.3172858  50.2368614  69.5382551  62.6916803  48.8681374
  64.0122849  58.7639718  54.8663545  63.8742647  58.0319956  55.4675084
  64.9227773  58.6748618  54.5847733  66.6405150  58.4759677  54.3547225
  67.3504768  57.8352869  54.3133843  66.5974458  58.7272572  55.2773406
  65.3534084  55.4624895  56.1742864  64.8171441  55.0115633  56.8264461
  64.7650792  55.5970804  55.4313329  64.7636343  54.9213546  38.7369328
  63.8865809  54.8002347  38.3731575  65.2394096  54.1299624  38.4848217
  56.2838483  59.7090706  48.8310835  56.9709523  59.3952436  48.2431850
  56.1286612  60.6132071  48.5578087  61.0873205  54.5980902  53.2595859
  61.0031394  53.9906572  52.5246269  60.2655911  55.0889921  53.2605355
  71.2596919  53.0834466  48.6266054  71.7565618  52.3304428  48.3067124
  70.4883900  53.1198783  48.0609263  67.8431888  55.2251849  48.3537739
  67.4729675  54.6722889  49.0418644  68.3390980  54.6209982  47.8012739
  61.2688804  65.2185699  52.3823859  61.8542241  64.4729387  52.5151763
  61.0713643  65.5289656  53.2660523  55.8606459  57.7891299  51.1028302
  55.8990559  57.2554890  51.8965420  55.3546752  57.2626505  50.4839279
  63.2397221  52.6355840  54.5990845  63.3038548  53.4970671  54.1868242
  63.1764342  52.0229841  53.8663203  62.7149494  54.7078972  58.2463879
  63.3421533  54.3256050  58.8601403  61.8577413  54.4893174  58.6119571
  59.4915037  56.5155401  44.1782234  59.7868478  55.6066080  44.1249287
  58.5903072  56.4943141  43.8563236  63.0209284  54.5911398  50.1609782
  62.2995869  55.2047366  50.0217256  63.8102539  55.1269163  50.0826428
  65.8235597  51.9265824  56.4350434  66.3469999  52.1728121  57.1976743
  65.6047930  52.7585859  56.0153571  61.2202878  54.1969499  44.3021559
  60.8915584  53.3166878  44.1196665  61.5742249  54.1417168  45.1897948
  64.3344701  54.4842469  44.6697037  64.6740774  55.0128390  43.9475645
  64.7816822  54.8222875  45.4455603  67.0288142  52.8679520  54.1200105
  66.6884963  52.0687333  54.5220784  66.3227148  53.1681230  53.5476938
  67.6804614  49.9528832  52.5727428  68.5030683  49.4789310  52.4506318
  67.9242678  50.7319316  53.0726114  66.3212848  52.9817090  42.8690329
  67.0421211  53.3598343  42.3654046  65.6978153  53.7005967  42.9725307
  65.2043193  56.6447953  50.3819406  65.0587773  56.9588256  51.2743688
  64.7268396  57.2632853  49.8290305  67.0639576  53.6350501  50.4300296
  67.0501144  52.7391594  50.0932594  67.7812004  53.6421164  51.0638582
  68.9165706  54.0687841  52.4753423  68.6583484  54.9904912  52.4737754
  68.3850747  53.6718275  53.1653887  59.6788855  59.1853297  53.3207067
  59.1342323  59.9613105  53.4527342  60.5568205  59.5324102  53.1626189
  66.4676472  52.5164881  45.6987866  66.5892383  51.5881527  45.8978753
  66.1778514  52.5303567  44.7866181  69.3367662  50.2019791  48.8354586
  69.3589359  50.2659124  47.8806565  69.7535721  49.3624300  49.0295092
  60.4654877  58.3123193  56.2137224  59.7236613  58.4605829  56.8001855
  60.1447621  58.5731459  55.3503974  60.9111490  66.1988622  48.2447619
  61.7369510  65.8992394  47.8646262  60.5605542  65.4296244  48.6937408
  65.8793024  65.5515090  50.3145292  65.2573033  64.8885795  50.0147520
  66.5497891  65.5776222  49.6318940  59.1120095  64.1174949  49.2036552
  58.2752004  63.6897123  49.0220554  59.0843741  64.3107392  50.1407344
  65.4406531  64.1019014  43.7903753  65.5894651  64.7854478  43.1370426
  66.2472974  64.0824104  44.3053209  63.1959163  60.1284191  44.7964822
  62.9505205  59.2246521  44.9945032  63.3655078  60.1301342  43.8544300
  70.8855873  51.0007868  54.1789578  71.4037817  51.7368895  53.8536066
  70.5311006  51.3071861  55.0136337  62.4654811  55.8612549  42.2950983
  61.7724056  55.9356904  41.6391019  62.2206563  55.0972892  42.8172500
  71.1368468  47.4208150  49.6990474  71.4170221  46.7531339  50.3250901
  71.9219074  47.6137246  49.1865138  69.3248735  57.9327957  38.6031553
  70.2707839  57.8034165  38.6719971  68.9462979  57.1942619  39.0800981
  67.5091652  55.8577933  38.5386438  66.6023107  55.5611046  38.6149152
  67.7867633  55.5607751  37.6720724  58.4269592  57.1784297  48.9885485
  58.1072376  56.3249605  48.6959859  57.8803020  57.3932875  49.7443452
  62.2049500  59.8946738  52.7054991  62.4235509  60.8263845  52.7243025
  62.6175273  59.5354712  53.4909795  69.1253717  50.4014823  44.6930679
  68.3154446  50.0561908  45.0685926  69.8138134  50.0922367  45.2818291
  71.0544266  49.4792870  46.3154976  71.6075304  49.8988323  46.9744999
  71.2914352  48.5528618  46.3577932  66.2790436  52.7164868  38.6798417
  67.1409600  53.0419767  38.9394235  66.4640780  51.9296364  38.1671483
  58.2957852  60.7987208  50.9578606  57.6021324  60.3841161  50.4448561
  59.0430843  60.8407745  50.3612025  60.2094595  60.7305462  48.8344621
  60.1865283  60.8293149  47.8826504  60.5195231  61.5770613  49.1561787
  62.8681972  62.7881617  52.9491235  63.8225226  62.7565559  52.8821167
  62.6694496  62.3272241  53.7641461  61.2232201  68.3301236  49.9661433
  61.0886669  67.5701637  49.3999431  60.8064264  69.0542136  49.4990222
  58.7116269  55.6920867  56.2154230  59.3575132  55.1819821  56.7041455
  58.5033420  56.4289548  56.7897655  67.2319879  49.9560911  41.9678126
  67.2198549  50.9002751  42.1246397  68.1243301  49.7731057  41.6737588
  71.0471999  46.5503688  46.2224063  70.2804395  45.9962175  46.3680746
  71.4582704  46.6225557  47.0838215  33.4914535   0.4989920  32.6484628
  33.4138565   1.4497745  32.7273108  32.8876179   0.1535792  33.3059554
  32.1508502  -1.9908559  40.0251188  32.7015927  -2.1191496  39.2528182
  31.3119978  -1.6913670  39.6746081  38.3649065  -0.0693722  27.8045890
  37.6910763   0.2337975  28.4130848  38.7514887   0.7335359  27.4551347
  36.5640280   0.0985951  30.0192969  36.7392035  -0.3726006  30.8338592
  35.8773068   0.7251717  30.2474230  31.1301365   3.2475314  36.7932830
  31.3697963   3.8793838  37.4711848  30.2870562   2.8963354  37.0798189
  35.6429227  -0.9445564  39.1974334  35.5699398  -0.1390592  39.7093638
  35.2006620  -0.7453598  38.3722355  35.4319007  -1.7073794  32.7077155
  34.6486528  -1.1652114  32.8015380  36.1311752  -1.1899814  33.1071396
  38.1027910  -1.0458730  41.3532492  38.8155883  -0.4111265  41.2808394
  37.6117939  -0.9494864  40.5372494  31.6046197  -0.7276684  34.1231608
  30.9356573  -0.2430556  33.6395648  31.4659067  -0.4807464  35.0374987
  35.7451466   1.3067060  40.7214267  36.2969774   1.4698681  41.4863352
  36.0857659   1.8971497  40.0494291  35.8917277  -1.1274459  42.7362921
  36.2004404  -1.3725312  43.6085620  36.6892759  -0.9227820  42.2481791
  35.9137889   1.0263451  34.9668297  35.4742880   0.5339829  35.6601154
  36.6646006   0.4836418  34.7260373  28.3930228  -2.7825008  34.9692926
  29.2188248  -3.0821237  34.5891569  28.0424280  -3.5517386  35.4182714
  26.5938833  -4.8638682  35.9281859  25.7570742  -5.2916508  35.7465860
  26.5662479  -4.6706239  36.8652650  28.7050939  -0.6512394  36.6906740
  28.5705407  -1.4111993  36.1244738  28.2883001   0.0728506  36.2235529
  31.8620065   0.2456923  36.9025183  31.7452449   1.1902355  36.8003873
  31.0412511  -0.0569515  37.2910982  32.8874579   0.8985185  40.1181111
  33.7901826   0.9308795  40.4347606  32.6611949  -0.0314364  40.1327447
  34.6428181  -0.3483829  36.7791190  33.6923812  -0.3481967  36.6655562
  34.9460667  -1.0951094  36.2627224  50.3780875   5.4876710  37.8436952
  51.0159285   5.3683457  37.1400292  50.2601717   6.4357554  37.9024904
  47.1870581   5.4404138  37.7798477  46.8489092   5.3245203  36.8919012
  48.0560349   5.0395303  37.7599483  43.0457397   7.2939614  33.7695368
  42.4822262   7.2029551  33.0011655  42.9309792   6.4739519  34.2497860
  47.6690364   6.5938990  43.7384682  47.6579005   6.1991788  42.8665186
  47.8311003   5.8605062  44.3318454  40.5921828   8.7890806  36.6079588
  41.3843120   8.4481631  36.1925887  40.8318479   8.8985781  37.5281741
  48.6256955  10.9610582  29.0809833  47.9744935  11.5464662  28.6943846
  49.4201318  11.4916777  29.1404870  42.5512582   8.0499719  29.4796967
  43.3243458   7.5028706  29.3409843  42.9037981   8.9143969  29.6911428
  44.3897625   9.3776101  42.6863866  44.0987491  10.2821732  42.5710533
  45.0254609   9.4192629  43.4007936  45.3153832   6.7552950  39.2765226
  45.9117404   6.5308972  38.5622189  45.3728803   6.0137695  39.8790674
  44.8878860   4.2092385  27.1115417  45.1404381   3.6873907  26.3498880
  43.9503419   4.0458531  27.2142100  50.1032220   8.6501014  29.6178817
  49.4678053   8.7235640  30.3299722  49.7729627   9.2394613  28.9397896
  44.6075149   6.1120491  29.3139792  44.4911407   5.4365395  29.9820876
  44.7177409   5.6252865  28.4971945  46.9506690   5.5730638  33.0186481
  46.5864897   5.0461259  33.7299403  47.8073806   5.1829107  32.8452966
  49.3487510   9.0637517  39.6813660  49.0488233   9.9662556  39.5729467
  49.0038570   8.7969700  40.5334813  42.7999992   5.5151314  35.7150364
  41.8750488   5.3827528  35.9228056  43.0484405   6.2945533  36.2120307
  46.5701398   3.0578196  28.9994496  46.4501023   3.5035246  29.8379977
  45.8753986   3.4063513  28.4408035  40.1608803   5.1584587  36.5494153
  40.2901184   5.4119066  37.4633565  39.4806254   5.7512295  36.2298809
  46.8225520   3.0009703  45.3045995  46.0458854   3.5603623  45.2948859
  47.4616083   3.4866486  45.8260865  45.0771892   5.8095156  44.8663962
  45.8186576   6.3480200  44.5898785  44.3708877   6.4361445  45.0235513
  50.5527232   7.9524297  43.4636123  50.9610588   7.5106707  42.7190755
  49.8304493   7.3776924  43.7170316  46.9058302   2.8896903  40.8369680
  47.7519497   3.3136317  40.9804329  46.8456939   2.2330528  41.5308243
  50.8756046   8.5125487  37.2188412  50.2464909   8.6771201  36.5164480
  50.4881708   8.9267097  37.9899376  54.7545278   9.4479925  34.5732776
  54.0696316   9.8278826  34.0229809  54.8389127  10.0575252  35.3064723
  52.0096210   7.0939884  41.1728119  52.2213105   7.7371644  40.4962500
  51.9625958   6.2602201  40.7050049  46.4284008   8.2499895  34.4838497
  46.8922354   8.5287598  33.6943120  46.1640806   7.3483340  34.3011588
  43.3208089   7.7971377  37.4218260  43.8909446   8.2258645  36.7835745
  43.9116201   7.5153962  38.1202446  45.3652894   4.3723048  31.2928062
  46.0676937   4.8244091  31.7601989  45.0333523   3.7306867  31.9207955
  43.8133256   2.9634804  45.6679272  43.1831916   3.6451085  45.9014668
  43.7069344   2.8517886  44.7232410  39.1078228   2.6306600  36.5945196
  38.3177282   2.8864129  36.1185306  39.5989475   3.4454938  36.6997236
  53.1242038   9.9711839  39.3450477  53.9459481   9.5692027  39.0633158
  53.1204441   9.8680074  40.2966592  41.0592973   2.9951180  33.5528672
  40.2624137   3.1069874  34.0712168  40.8318566   3.3337832  32.6869563
  46.8898641   9.5195883  41.5011187  46.9543074   9.9816290  42.3369359
  46.1809565   8.8893248  41.6293497  37.3915931   2.8837091  39.0260187
  37.6423970   3.7684101  39.2917762  37.9275479   2.7041692  38.2535278
  46.6046659  11.1863990  31.3690167  46.4692334  12.0315526  31.7975015
  47.1456471  11.3883268  30.6056101  40.0576056   8.7039428  31.9418092
  40.5700577   9.4982679  32.0923657  40.7098769   8.0065719  31.8751694
  41.1523297   3.8669816  43.9003009  41.0376813   2.9655074  44.2010108
  40.2967815   4.1133513  43.5487825  48.2315135  11.8087557  45.4990509
  47.7878989  11.0223935  45.1811414  48.8932349  11.9966707  44.8334400
  42.9902256  13.3383358  40.0251188  43.5409681  13.2100422  39.2528182
  42.1513732  13.6378247  39.6746081  50.3296373  12.0890357  43.5271911
  50.3114849  12.9099238  43.0352180  51.2516293  11.9644432  43.7522052
  46.7869427   9.6034486  44.3695419  47.3197764   8.8422774  44.1394727
  46.2583508   9.3108138  45.1119574  38.0224973   7.0328083  32.7177663
  38.8600195   7.4425091  32.5011371  38.2003241   6.0927525  32.6877857
  49.9189405   4.7003163  28.4061496  49.4036029   5.4707768  28.6449883
  49.6466714   4.0268299  29.0294557  54.8923679   7.4535518  30.3414669
  54.1153122   7.1146677  29.8969832  55.5715160   7.4588141  29.6669634
  48.1522140   8.7320479  31.8814231  47.6243502   7.9973238  31.5687469
  47.6509643   9.5095155  31.6354199  53.1314986   6.9269499  36.9981277
  52.4738661   7.6168761  37.0861406  53.9355385   7.3165931  37.3415264
  51.9420445   5.2813872  35.0485219  52.4552327   5.9143864  35.5506929
  52.5921669   4.6815067  34.6828579  43.2110455   1.4244606  28.2616728
  42.3747767   1.7619293  28.5826003  43.0715224   1.2893586  27.3243865
  46.2974740   6.5500689  24.8849204  45.3901802   6.3189942  25.0840353
  46.7945772   5.7538308  25.0723186  49.2042819  15.2598196  27.8045890
  48.5304518  15.5629893  28.4130848  49.5908641  16.0627276  27.4551347
  48.4201276   2.7563327  37.2943560  47.5023837   2.9778274  37.1365248
  48.8361419   2.8309638  36.4355267  49.2036324   4.1554743  32.4246240
  49.9508142   4.6676140  32.1153362  49.4727913   3.8338796  33.2850633
  47.4762974   6.6513284  29.4073194  46.5674193   6.3672317  29.5045664
  47.5058058   7.0712362  28.5476501  52.7082241  10.2619873  33.1764362
  52.2544568   9.4210783  33.2329552  52.0776208  10.8981272  33.5139142
  51.1515180  12.0996370  34.1114180  51.4438155  12.6601427  33.3926546
  51.6613801  12.3924931  34.8667339  38.0451144   4.3718798  33.3888396
  37.8475544   3.7788159  32.6639463  37.4897808   4.0671008  34.1064335
  46.0247868   4.2641904  35.5082990  46.0796478   3.3115741  35.4325466
  45.2139070   4.4201344  35.9924288  47.1739062   8.1922027  26.7461273
  46.7358491   7.4757886  26.2866910  47.9149502   8.4198142  26.1846364
  43.9640228   2.8818964  33.2673368  43.1508093   3.1813135  33.6738561
  44.4599222   2.4874653  33.9847851  46.1148806  12.8776721  35.2007633
  46.0724984  13.1037567  34.2716165  47.0311504  12.6440096  35.3493434
  49.5614439   3.3460789  42.0988262  49.9163827   3.5732262  42.9582728
  50.2086571   3.6779165  41.4765518  55.2912176   6.4679225  32.8037591
  55.1530075   6.6580820  31.8758781  54.9348395   7.2298607  33.2605643
  55.3181556   8.5355752  37.8148863  55.7518063   8.4431041  38.6631917
  56.0313137   8.5113252  37.1768879  44.2314606   9.7539750  34.9969596
  45.0255205   9.2590070  34.7952171  43.5206299   9.2257613  34.6337301
  49.0509451  12.1357846  39.3481963  49.1046473  12.7048782  40.1159679
  48.1824232  12.3059731  38.9836001  40.5397370   3.8982832  31.0729349
  39.6094958   3.8367287  31.2899311  40.6354842   3.3758785  30.2765990
  40.4582919   0.4237645  33.6607590  40.7189736   1.3382978  33.5516751
  41.2800091  -0.0437913  33.8104203  41.9307844   1.8375402  40.8306415
  42.6030898   1.6292764  40.1819064  41.1037631   1.6397488  40.3911647
  56.1797105   8.5779452  40.3481748  56.3732996   9.4825263  40.5941023
  56.0797724   8.1186871  41.1820333  51.2412214   8.7286195  45.9222629
  51.0897721   8.4996747  45.0052713  51.2316894   9.6856796  45.9353974
  48.0097551   6.3018108  40.9068895  48.9389611   6.4529267  40.7337863
  47.5888581   6.3902128  40.0517542  46.8085882  10.3268772  38.6767433
  46.6696968   9.9587556  39.5493371  46.0200479  10.8416412  38.5051391
  47.4034034  15.4277869  30.0192969  47.5785790  14.9565912  30.8338592
  46.7166822  16.0543635  30.2474230  48.3591097   9.7050375  36.0656271
  48.0240930   9.6651145  36.9613921  47.8595043   9.0395091  35.5926681
  42.3335341   5.1118005  41.5908852  42.1955139   4.3798244  42.1920391
  43.2440265   5.0226905  41.3093040  51.2950289   7.0506409  26.3393330
  50.6779460   6.3253237  26.2426383  50.8266778   7.8115769  25.9960405
  44.9617642   4.8237964  41.0792532  45.6717261   4.1831156  41.0379150
  44.9186950   5.0750859  42.0018712  52.9504421  11.7605317  43.9999111
  52.8916967  11.0764538  43.3329694  53.3523939  12.5024307  43.5479737
  43.6746576   1.8103182  42.8988171  43.1383933   1.3593920  43.5509767
  43.0863285   1.9449091  42.1558635  52.9521828   9.7244901  42.2313090
  52.0648607   9.3870823  42.3539489  53.5220379   8.9927933  42.4681856
  34.6050975   6.0568993  35.5556142  35.2922015   5.7430723  34.9677157
  34.4499104   6.9610358  35.2823393  39.4085697   0.9459190  39.9841166
  39.3243886   0.3384859  39.2491575  38.5868404   1.4368208  39.9850662
  46.4822981  14.3846354  39.1974334  46.4093153  15.1901325  39.7093638
  46.0400375  14.5838320  38.3722355  46.2712761  13.6218124  32.7077155
  45.4880283  14.1639804  32.8015380  46.9705506  14.1392103  33.1071396
  48.9421665  14.2833188  41.3532492  49.6549637  14.9180653  41.2808394
  48.4511694  14.3797054  40.5372494  50.6639192   8.1884440  32.9249784
  49.7295471   8.3085903  32.7554488  50.8415860   7.2856907  32.6609794
  43.9933578  12.0327631  42.1738063  44.6943038  12.6664114  42.3267457
  43.5228693  12.3742363  41.4133702  52.1187974  10.3745581  30.4585970
  52.3947818  10.2602176  31.3679844  51.2492473   9.9763066  30.4198143
  51.7934864   4.5872239  39.9990613  51.1406315   4.8348146  39.3443066
  52.1715244   3.7736377  39.6653091  48.7542038  14.6231932  34.1018784
  48.9364433  13.8053588  34.5646536  49.5775024  14.8399624  33.6643674
  49.0884204  13.5500117  31.3633832  49.6171970  13.0392572  30.7503994
  49.3512423  13.2342647  32.2279365  47.8422437   5.3292050  46.4856651
  47.1663075   5.2286179  47.1559026  48.6650071   5.1731264  46.9492648
  39.5901297  11.5663986  39.1069166  40.1754733  10.8207674  39.2397070
  39.3926135  11.8767943  39.9905830  34.1818951   4.1369587  37.8273609
  34.2203051   3.6033177  38.6210727  33.6759244   3.6104792  37.2084586
  46.5845220  16.6358977  40.7214267  47.1363528  16.7990599  41.4863352
  46.9251414  17.2263415  40.0494291  41.0361986   1.0557260  44.9709186
  41.6634025   0.6734337  45.5846710  40.1789905   0.8371461  45.3364878
  51.4356095  11.4620235  46.5762921  51.9795999  12.0750193  46.0817876
  50.8542940  12.0199813  47.0929934  37.8127529   2.8633689  30.9027540
  38.1080970   1.9544367  30.8494594  36.9115565   2.8421428  30.5808543
  49.7213608  14.5840953  37.7077949  49.5964747  13.7830693  37.1988894
  50.3792699  15.0787146  37.2191919  41.3421776   0.9389685  36.8855089
  40.6208362   1.5525653  36.7462562  42.1315032   1.4747450  36.8071735
  51.7848516  12.3849973  39.3357499  50.8378852  12.2655324  39.2635826
  52.1331289  11.4972471  39.4183760  39.5415370   0.5447786  31.0266865
  39.2128077  -0.3354835  30.8441971  39.8954741   0.4895455  31.9143255
  48.7894949  12.1802689  35.5361851  48.6419912  11.2519396  35.7169421
  49.6148443  12.2022780  35.0518926  42.6557194   0.8320756  31.3942343
  42.9953266   1.3606677  30.6720952  43.1029314   1.1701162  32.1700910
  52.3929071  13.0031248  36.6226724  53.3175619  12.7974109  36.4851175
  52.2244375  12.7547649  37.5316065  43.5255685   2.9926240  37.1064713
  43.3800266   3.3066543  37.9988994  43.0480889   3.6111140  36.5535611
  52.1824387  13.5216915  31.9788815  52.3561265  12.9563338  31.2262668
  52.6753279  14.3217810  31.7968305  38.0001347   5.5331584  40.0452374
  37.4554815   6.3091392  40.1772648  38.8780697   5.8802389  39.8871495
  53.1699560  12.8383680  29.0785714  53.8650464  13.4590372  29.2973028
  53.5122710  11.9879031  29.3538091  38.7867369   4.6601481  42.9382531
  38.0449105   4.8084116  43.5247161  38.4660113   4.9209746  42.0749280
  55.0690983  10.2883385  30.6073044  55.5942307  10.6270658  29.8822364
  54.9813336   9.3530400  30.4236179  46.7311032  14.2017459  42.7362921
  47.0398158  13.9566606  43.6085620  47.5286514  14.4064097  42.2481791
  44.2005516  11.8993378  37.0390599  43.5785525  11.2364083  36.7392827
  44.8710383  11.9254509  36.3564247  37.4332588  10.4653236  35.9281859
  36.5964496  10.0375410  35.7465860  37.4056233  10.6585679  36.8652650
  54.7584889  10.9216289  45.9124242  53.9680433  10.9040428  45.3728742
  54.5218244  11.4604582  46.6673279  54.8782764   7.7708755  43.2256971
  54.9280769   7.6058763  44.1672494  54.7696687   6.9036014  42.8354852
  43.7619023  10.4497301  30.5149060  43.9107143  11.1332765  29.8615732
  44.5685466  10.4302391  31.0298515  56.3800961  10.1905697  43.4698992
  56.0885769  10.5535677  44.3062453  55.7673092   9.4772705  43.2912324
  57.5796643   7.7558576  35.9901563  58.4143535   8.1948381  36.1539123
  57.7155772   7.2797230  35.1709808  54.6288149   5.3138311  41.9379050
  55.1042271   5.5065958  41.1297902  53.7053715   5.3697497  41.6922434
  41.5171656   6.4762478  31.5210129  41.2717698   5.5724808  31.7190339
  41.6867570   6.4779629  30.5789607  40.7867303   2.2090836  29.0196290
  40.0936548   2.2835191  28.3636326  40.5419055   1.4451180  29.5417807
  47.2614428  12.9445431  27.9860807  46.6888395  13.5635618  27.5331279
  47.8347222  13.4944793  28.5200729  50.4811688  13.2282581  29.1169389
  51.4142361  13.1628143  29.3202265  50.3934901  14.0638848  28.6583922
  53.1099705  12.5448452  26.0773337  53.0313336  12.2108315  26.9709095
  53.9309372  13.0370220  26.0764809  47.6461227   4.2806244  25.3276860
  48.5920332   4.1512452  25.3965278  47.2675472   3.5420906  25.8046288
  47.5299919   8.3323990  46.7877517  48.4502929   8.5102589  46.9817563
  47.4949502   7.3880036  46.6357216  45.8304144   2.2056220  25.2631745
  44.9235599   1.9089333  25.3394458  46.1080125   1.9086039  24.3966031
  36.7482084   3.5262584  35.7130791  36.4284869   2.6727892  35.4205165
  36.2015513   3.7411162  36.4688759  40.5261992   6.2425025  39.4300298
  40.7448002   7.1742133  39.4488332  40.9387766   5.8832999  40.2155102
  45.3989857   1.8158231  48.8203047  45.2986584   2.7652588  48.7515138
  45.1811399   1.4876470  47.9479117  36.6170344   7.1465495  37.6823913
  35.9233816   6.7319448  37.1693867  37.3643335   7.1886032  37.0857332
  45.2621127   5.2455369  47.6368108  44.7788209   6.0455730  47.8431997
  45.3482066   5.2563314  46.6835552  38.5307087   7.0783749  35.5589928
  38.5077775   7.1771436  34.6071811  38.8407723   7.9248900  35.8807094
  41.1894465   9.1359904  39.6736542  42.1437718   9.1043846  39.6066474
  40.9906988   8.6750528  40.4886768  41.7793847   7.7061020  42.2407340
  42.5986736   8.2005099  42.2642177  42.0530655   6.7892988  42.2124907
  50.6803657   9.8616447  25.6983315  51.3839507  10.0666450  26.3140971
  49.9566305  10.4293209  25.9632399  51.5101467   5.6126308  31.8185585
  51.4536668   6.0694860  30.9793218  52.0629809   4.8516993  31.6408428
  52.5890354  10.2998976  27.7481775  53.4235958   9.8680175  27.5659250
  52.4274697  10.1280990  28.6758670  52.2436246   6.8031090  29.1138115
  52.1885050   6.6375361  28.1726559  51.6182301   7.5107123  29.2700304
  37.0328761   2.0399154  42.9399537  37.6787625   1.5298108  43.4286762
  36.8245912   2.7767836  43.5142962  49.5582153   9.1080002  48.4391677
  50.4273313   9.2820654  48.0778312  49.0788905   9.9274418  48.3167407
  43.7268334  16.2277103  40.1181111  44.6295580  16.2600713  40.4347606
  43.5005704  15.2977554  40.1327447  61.2174629  20.8168628  37.8436952
  61.8553039  20.6975375  37.1400292  61.0995472  21.7649471  37.9024904
  58.0264335  20.7696056  37.7798477  57.6882847  20.6537120  36.8919012
  58.8954104  20.3687221  37.7599483  53.8851151  22.6231532  33.7695368
  53.3216016  22.5321469  33.0011655  53.7703546  21.8031436  34.2497860
  58.5084118  21.9230907  43.7384682  58.4972759  21.5283706  42.8665186
  58.6704758  21.1896980  44.3318454  59.4650710  26.2902500  29.0809833
  58.8138690  26.8756580  28.6943846  60.2595073  26.8208695  29.1404870
  53.3906337  23.3791637  29.4796967  54.1637213  22.8320624  29.3409843
  53.7431736  24.2435886  29.6911428  55.2291379  24.7068019  42.6863866
  54.9381245  25.6113650  42.5710533  55.8648364  24.7484547  43.4007936
  56.1547586  22.0844868  39.2765226  56.7511159  21.8600890  38.5622189
  56.2122558  21.3429613  39.8790674  55.7272615  19.5384303  27.1115417
  55.9798135  19.0165824  26.3498880  54.7897174  19.3750448  27.2142100
  60.7715898  18.5420081  34.9190160  61.5578987  18.1239505  34.5680577
  61.0354602  19.4466174  35.0871808  60.9425975  23.9792932  29.6178817
  60.3071808  24.0527558  30.3299722  60.6123381  24.5686530  28.9397896
  66.1724325  18.4795315  35.8223139  66.9049497  17.9094531  36.0560968
  65.4163680  18.0916915  36.2629644  55.4468903  21.4412409  29.3139792
  55.3305162  20.7657312  29.9820876  55.5571163  20.9544783  28.4971945
  57.7900444  20.9022556  33.0186481  57.4258652  20.3753177  33.7299403
  58.6467560  20.5121025  32.8452966  63.6949745  12.1916889  40.2817747
  63.3633070  13.0612300  40.0578962  63.0995358  11.8753173  40.9611778
  57.4305931  15.9312456  28.0147830  57.5980334  16.7992692  28.3818301
  57.2403100  16.0939737  27.0909119  60.1881265  24.3929435  39.6813660
  59.8881988  25.2954473  39.5729467  59.8432324  24.1261618  40.5334813
  53.6393746  20.8443231  35.7150364  52.7144243  20.7119446  35.9228056
  53.8878159  21.6237451  36.2120307  63.5878408  16.9111975  37.3611097
  62.6795286  16.8427383  37.0669858  63.5366004  17.3883920  38.1892923
  57.4095152  18.3870113  28.9994496  57.2894777  18.8327164  29.8379977
  56.7147741  18.7355431  28.4408035  51.0002557  20.4876505  36.5494153
  51.1294938  20.7410984  37.4633565  50.3200008  21.0804213  36.2298809
  55.1702044  31.1573755  32.6484628  55.0926074  32.1081580  32.7273108
  54.5663688  30.8119627  33.3059554  57.6619274  18.3301620  45.3045995
  56.8852608  18.8895541  45.2948859  58.3009837  18.8158403  45.8260865
  65.4540055  15.1128413  39.1388971  64.8114435  15.4060946  38.4928766
  64.9494983  14.9981334  39.9442168  63.1080218  18.8591586  29.8274830
  64.0198075  19.0918973  29.6522528  62.5989865  19.4428631  29.2649909
  55.9165646  21.1387074  44.8663962  56.6580331  21.6772118  44.5898785
  55.2102632  21.7653363  45.0235513  61.3920986  23.2816214  43.4636123
  61.8004342  22.8398625  42.7190755  60.6698248  22.7068842  43.7170316
  57.7452056  18.2188821  40.8369680  58.5913251  18.6428235  40.9804329
  57.6850694  17.5622445  41.5308243  61.7149801  23.8417405  37.2188412
  61.0858663  24.0063119  36.5164480  61.3275463  24.2559014  37.9899376
  65.5939033  24.7771843  34.5732776  64.9090071  25.1570744  34.0229809
  65.6782882  25.3867169  35.3064723  60.8951501  15.8793189  42.4950854
  60.6512433  16.6335250  41.9585129  61.1711432  16.2578537  43.3298101
  62.8489964  22.4231802  41.1728119  63.0606859  23.0663562  40.4962500
  62.8019712  21.5894118  40.7050049  60.4516193  15.0349622  38.0764691
  59.5900672  15.3330876  38.3681429  60.4778628  15.2520021  37.1445724
  57.2677763  23.5791813  34.4838497  57.7316108  23.8579516  33.6943120
  57.0034561  22.6775258  34.3011588  54.1601844  23.1263295  37.4218260
  54.7303201  23.5550563  36.7835745  54.7509956  22.8445879  38.1202446
  56.2046649  19.7014965  31.2928062  56.9070692  20.1536009  31.7601989
  55.8727277  19.0598784  31.9207955  54.6527010  18.2926722  45.6679272
  54.0225671  18.9743003  45.9014668  54.5463098  18.1809804  44.7232410
  49.9471983  17.9598518  36.5945196  49.1571037  18.2156047  36.1185306
  50.4383230  18.7746856  36.6997236  63.9635792  25.3003757  39.3450477
  64.7853236  24.8983944  39.0633158  63.9598195  25.1971991  40.2966592
  51.8986728  18.3243097  33.5528672  51.1017891  18.4361791  34.0712168
  51.6712320  18.6629749  32.6869563  57.7292396  24.8487800  41.5011187
  57.7936828  25.3108208  42.3369359  57.0203319  24.2185165  41.6293497
  48.2309686  18.2129008  39.0260187  48.4817724  19.0976018  39.2917762
  48.7669234  18.0333610  38.2535278  72.0541785  21.6442506  35.6935448
  71.3005494  21.0749904  35.5379452  72.1889326  21.6105170  36.6406083
  57.4440413  26.5155908  31.3690167  57.3086088  27.3607444  31.7975015
  57.9850226  26.7175186  30.6056101  53.9307753  12.5947488  48.0304523
  53.5374698  12.0413686  48.7052167  54.7473893  12.9058066  48.4211040
  50.8969811  24.0331346  31.9418092  51.4094331  24.8274596  32.0923657
  51.5492523  23.3357636  31.8751694  52.7064695  27.1497102  34.0240846
  52.8831324  28.0715067  33.8361830  53.5021529  26.8355521  34.4535225
  56.8475714  14.0105367  45.6224779  57.5885427  14.6112520  45.5429242
  57.0793637  13.2683005  45.0642822  51.9917052  19.1961734  43.9003009
  51.8770567  18.2946991  44.2010108  51.1361570  19.4425431  43.5487825
  59.0708890  27.1379474  45.4990509  58.6272744  26.3515853  45.1811414
  59.7326103  27.3258625  44.8334400  53.8296011  28.6675276  40.0251188
  54.3803436  28.5392339  39.2528182  52.9907487  28.9670165  39.6746081
  61.1690128  27.4182274  43.5271911  61.1508603  28.2391155  43.0352180
  62.0910048  27.2936350  43.7522052  57.6263182  24.9326404  44.3695419
  58.1591519  24.1714692  44.1394727  57.0977263  24.6400056  45.1119574
  60.7932877  10.0386470  39.8989061  60.4497146  10.9288112  39.8228171
  61.1611839   9.8488127  39.0358646  60.7583160  20.0295081  28.4061496
  60.2429783  20.7999686  28.6449883  60.4860468  19.3560217  29.0294557
  58.3430271  14.8744782  33.4646734  57.4871867  14.4851632  33.2852373
  58.7557222  14.9536743  32.6046520  59.8729417  12.4091125  37.8638294
  59.3694213  12.3721260  37.0506099  60.1660024  13.3183868  37.9234951
  56.1172303  12.4929855  36.8704476  56.9825300  12.2972663  36.5110365
  56.1849812  12.2640206  37.7973833  65.7317434  22.7827436  30.3414669
  64.9546876  22.4438595  29.8969832  66.4108915  22.7880059  29.6669634
  60.5469463  17.9022173  30.2321277  60.2419598  18.2168322  31.0831420
  61.4999905  17.9803593  30.2748610  58.9915895  24.0612396  31.8814231
  58.4637256  23.3265156  31.5687469  58.4903397  24.8387073  31.6354199
  63.9708741  22.2561417  36.9981277  63.3132415  22.9460678  37.0861406
  64.7749140  22.6457849  37.3415264  53.7234622  14.7232063  34.2420843
  54.2978374  14.5007244  33.5094036  54.3105605  14.7920757  34.9949444
  62.7814199  20.6105790  35.0485219  63.2946081  21.2435781  35.5506929
  63.4315423  20.0106985  34.6828579  54.0504209  16.7536524  28.2616728
  53.2141522  17.0911210  28.5826003  53.9108979  16.6185503  27.3243865
  56.0257290  11.5973312  32.9695912  55.3721702  11.2822329  32.3452527
  55.9837764  10.9749052  33.6955735  57.1368495  21.8792607  24.8849204
  56.2295556  21.6481860  25.0840353  57.6339527  21.0830226  25.0723186
  60.0436574  30.5890114  27.8045890  59.3698272  30.8921811  28.4130848
  60.4302396  31.3919194  27.4551347  59.2595030  18.0855245  37.2943560
  58.3417592  18.3070192  37.1365248  59.6755174  18.1601556  36.4355267
  60.0430078  19.4846661  32.4246240  60.7901897  19.9968058  32.1153362
  60.3121668  19.1630713  33.2850633  58.3156728  21.9805201  29.4073194
  57.4067947  21.6964234  29.5045664  58.3451812  22.4004280  28.5476501
  63.5475996  25.5911791  33.1764362  63.0938323  24.7502701  33.2329552
  62.9169962  26.2273189  33.5139142  62.4908915  16.5203777  34.4065029
  61.7531672  16.0081163  34.7375272  62.7435689  16.0804159  33.5948306
  61.9908935  27.4288288  34.1114180  62.2831909  27.9893345  33.3926546
  62.5007555  27.7216849  34.8667339  62.5920542   9.2980029  35.0006799
  62.8979419   8.4377392  34.7132714  63.3173147   9.8897649  34.8005792
  48.8844899  19.7010716  33.3888396  48.6869298  19.1080076  32.6639463
  48.3291563  19.3962926  34.1064335  56.8641622  19.5933822  35.5082990
  56.9190232  18.6407658  35.4325466  56.0532824  19.7493261  35.9924288
  58.0132816  23.5213945  26.7461273  57.5752246  22.8049804  26.2866910
  58.7543257  23.7490060  26.1846364  54.8033982  18.2110882  33.2673368
  53.9901848  18.5105052  33.6738561  55.2992976  17.8166571  33.9847851
  56.9542560  28.2068639  35.2007633  56.9118739  28.4329485  34.2716165
  57.8705259  27.9732013  35.3493434  60.4008194  18.6752706  42.0988262
  60.7557582  18.9024179  42.9582728  61.0480325  19.0071083  41.4765518
  66.1305931  21.7971142  32.8037591  65.9923829  21.9872738  31.8758781
  65.7742150  22.5590525  33.2605643  54.2948057  15.7829237  38.8834603
  54.9347436  15.6417996  38.1857567  53.4625587  15.4963751  38.5073205
  66.1575310  23.8647669  37.8148863  66.5911817  23.7722958  38.6631917
  66.8706891  23.8405170  37.1768879  55.0708361  25.0831668  34.9969596
  55.8648959  24.5881988  34.7952171  54.3600053  24.5549531  34.6337301
  59.8903205  27.4649763  39.3481963  59.9440228  28.0340700  40.1159679
  59.0217987  27.6351648  38.9836001  51.3791124  19.2274750  31.0729349
  50.4488712  19.1659205  31.2899311  51.4748596  18.7050702  30.2765990
  51.2976673  15.7529562  33.6607590  51.5583491  16.6674896  33.5516751
  52.1193846  15.2854005  33.8104203  52.7701599  17.1667320  40.8306415
  53.4424652  16.9584682  40.1819064  51.9431385  16.9689406  40.3911647
  67.0190860  23.9071370  40.3481748  67.2126750  24.8117180  40.5941023
  66.9191478  23.4478789  41.1820333  58.6727171  13.7929260  42.8472076
  58.0255086  14.4919210  42.7536552  59.4428186  14.2265404  43.2148324
  62.0805969  24.0578113  45.9222629  61.9291475  23.8288664  45.0052713
  62.0710648  25.0148714  45.9353974  58.8491305  21.6310025  40.9068895
  59.7783365  21.7821185  40.7337863  58.4282335  21.7194046  40.0517542
  57.6479637  25.6560690  38.6767433  57.5090723  25.2879474  39.5493371
  56.8594233  26.1708329  38.5051391  58.2427789  30.7569786  30.0192969
  58.4179544  30.2857829  30.8338592  57.5560577  31.3835552  30.2474230
  59.1984852  25.0342292  36.0656271  58.8634685  24.9943062  36.9613921
  58.6988798  24.3687008  35.5926681  53.1729096  20.4409922  41.5908852
  53.0348894  19.7090161  42.1920391  54.0834019  20.3518823  41.3093040
  62.1344044  22.3798327  26.3393330  61.5173214  21.6545155  26.2426383
  61.6660532  23.1407687  25.9960405  55.8011397  20.1529882  41.0792532
  56.5111015  19.5123074  41.0379150  55.7580705  20.4042777  42.0018712
  63.7898175  27.0897235  43.9999111  63.7310721  26.4056455  43.3329694
  64.1917694  27.8316225  43.5479737  54.5140331  17.1395100  42.8988171
  53.9777688  16.6885838  43.5509767  53.9257039  17.2741009  42.1558635
  53.9242590  16.5983751  25.4614635  53.0472056  16.4772552  25.0976881
  54.4000343  15.8069829  25.2093523  63.7915583  25.0536819  42.2313090
  62.9042361  24.7162741  42.3539489  64.3614134  24.3219850  42.4681856
  50.2479452  16.2751107  39.9841166  50.1637641  15.6676777  39.2491575
  49.4262158  16.7660126  39.9850662  57.3216736  29.7138271  39.1974334
  57.2486907  30.5193243  39.7093638  56.8794129  29.9130237  38.3722355
  57.1106516  28.9510041  32.7077155  56.3274037  29.4931722  32.8015380
  57.8099261  29.4684021  33.1071396  60.4203166  14.7604671  35.3511361
  60.9171865  14.0074633  35.0312431  59.6490147  14.7968988  34.7854570
  68.2732923  20.4645036  36.9929652  68.2622799  21.3469752  36.6223585
  67.4050303  20.1116587  36.7984189  59.7815419  29.6125105  41.3532492
  60.4943392  30.2472570  41.2808394  59.2905448  29.7088971  40.5372494
  61.5032946  23.5176358  32.9249784  60.5689225  23.6377821  32.7554488
  61.6809615  22.6148825  32.6609794  57.0038134  16.9022054  35.0783045
  56.6335922  16.3493094  35.7663951  57.4997227  16.2980187  34.5258045
  64.8905498  19.3593677  33.4599818  65.3565950  20.1921669  33.3860121
  65.3412998  18.8938659  34.1645077  54.8327333  27.3619549  42.1738063
  55.5336792  27.9956032  42.3267457  54.3622448  27.7034280  41.4133702
  62.9581729  25.7037499  30.4585970  63.2341573  25.5894093  31.3679844
  62.0886228  25.3054984  30.4198143  62.8622160  11.7274264  37.4990719
  61.9485240  11.9578491  37.6672926  63.2915262  11.8112708  38.3504752
  62.6328619  19.9164156  39.9990613  61.9800069  20.1640064  39.3443066
  63.0108999  19.1028295  39.6653091  59.5935793  29.9523850  34.1018784
  59.7758187  29.1345505  34.5646536  60.4168779  30.1691542  33.6643674
  59.9277958  28.8792035  31.3633832  60.4565725  28.3684489  30.7503994
  60.1906178  28.5634565  32.2279365  58.6816192  20.6583967  46.4856651
  58.0056829  20.5578097  47.1559026  59.5043826  20.5023181  46.9492648
  57.4238975  31.9650895  40.7214267  57.9757283  32.1282516  41.4863352
  57.7645168  32.5555333  40.0494291  52.4003468  14.3126045  41.3236151
  52.4644795  15.1740876  40.9113549  52.3370588  13.7000046  40.5908510
  51.8755741  16.3849177  44.9709186  52.5027779  16.0026255  45.5846710
  51.0183659  16.1663379  45.3364878  62.2749849  26.7912152  46.5762921
  62.8189753  27.4042111  46.0817876  61.6936694  27.3491731  47.0929934
  48.6521283  18.1925606  30.9027540  48.9474724  17.2836285  30.8494594
  47.7509319  18.1713346  30.5808543  60.5607362  29.9132870  37.7077949
  60.4358502  29.1122610  37.1988894  61.2186453  30.4079064  37.2191919
  52.1815530  16.2681603  36.8855089  51.4602116  16.8817571  36.7462562
  52.9708786  16.8039368  36.8071735  62.6242271  27.7141891  39.3357499
  61.6772606  27.5947242  39.2635826  62.9725044  26.8264389  39.4183760
  54.9841844  13.6036029  43.1595741  55.5076246  13.8498326  43.9222050
  54.7654177  14.4356064  42.7398878  50.3809125  15.8739704  31.0266865
  50.0521831  14.9937083  30.8441971  50.7348496  15.8187373  31.9143255
  59.6288704  27.5094607  35.5361851  59.4813666  26.5811314  35.7169421
  60.4542197  27.5314697  35.0518926  53.4950948  16.1612674  31.3942343
  53.8347021  16.6898595  30.6720952  53.9423069  16.4993080  32.1700910
  63.2322826  28.3323165  36.6226724  64.1569373  28.1266027  36.4851175
  63.0638129  28.0839567  37.5316065  56.1894389  14.5449725  40.8445411
  55.8491209  13.7457538  41.2466091  55.4833395  14.8451435  40.2722244
  56.8410861  11.6299037  39.2972734  57.6636930  11.1559515  39.1751625
  57.0848924  12.4089521  39.7971421  55.4819095  14.6587295  29.5935636
  56.2027458  15.0368548  29.0899353  54.8584399  15.3776172  29.6970614
  59.6250218  15.3632444  30.5293968  59.8413833  16.2457082  30.2282796
  59.1444285  14.9718658  29.7999610  54.3649440  18.3218158  37.1064713
  54.2194020  18.6358461  37.9988994  53.8874643  18.9403058  36.5535611
  56.2245822  15.3120706  37.1545602  56.2107391  14.4161799  36.8177900
  56.9418251  15.3191369  37.7883888  58.0771953  15.7458046  39.1998730
  57.8189731  16.6675116  39.1983060  57.5456993  15.3488480  39.8899194
  63.0218142  28.8508833  31.9788815  63.1955019  28.2855255  31.2262668
  63.5147033  29.6509728  31.7968305  48.8395102  20.8623502  40.0452374
  48.2948570  21.6383310  40.1772648  49.7174452  21.2094306  39.8871495
  55.6282718  14.1935086  32.4233173  55.7498630  13.2651732  32.6224060
  55.3384761  14.2073772  31.5111488  58.4973909  11.8789996  35.5599892
  58.5195606  11.9429329  34.6051872  58.9141968  11.0394505  35.7540399
  68.8757533  21.6145256  33.5979115  69.3188679  20.8652581  33.1998238
  67.9984043  21.6055392  33.2152847  64.0093314  28.1675597  29.0785714
  64.7044219  28.7882290  29.2973028  64.3516464  27.3170949  29.3538091
  49.6261124  19.9893398  42.9382531  48.8842860  20.1376034  43.5247161
  49.3053868  20.2501664  42.0749280  65.9084737  25.6175303  30.6073044
  66.4336062  25.9562576  29.8822364  65.8207090  24.6822318  30.4236179
  57.5704786  29.5309376  42.7362921  57.8791913  29.2858523  43.6085620
  58.3680268  29.7356015  42.2481791  57.5925398  31.6847286  34.9668297
  57.1530389  31.1923665  35.6601154  58.3433515  31.1420254  34.7260373
  55.0399270  27.2285295  37.0390599  54.4179280  26.5656000  36.7392827
  55.7104137  27.2546427  36.3564247  55.1123798  15.7067083  46.6323105
  55.1611953  16.5829206  46.2500875  55.6546312  15.1644476  46.0594748
  65.5978644  26.2508206  45.9124242  64.8074187  26.2332345  45.3728742
  65.3611998  26.7896500  46.6673279  65.7176519  23.1000673  43.2256971
  65.7674524  22.9350680  44.1672494  65.6090442  22.2327932  42.8354852
  54.6012777  25.7789219  30.5149060  54.7500898  26.4624683  29.8615732
  55.4079221  25.7594309  31.0298515  63.0080281  19.0831601  44.5416277
  63.9090144  18.9438066  44.2500275  63.0828255  19.2486056  45.4814455
  57.3423086  16.4598456  43.3869464  56.4726396  16.7532022  43.1152052
  57.5782567  17.0438901  44.1076727  67.2194715  25.5197614  43.4698992
  66.9279524  25.8827595  44.3062453  66.6066847  24.8064623  43.2912324
  68.4190398  23.0850494  35.9901563  69.2537289  23.5240298  36.1539123
  68.5549527  22.6089147  35.1709808  65.4681904  20.6430229  41.9379050
  65.9436025  20.8357875  41.1297902  64.5447469  20.6989415  41.6922434
  52.3565410  21.8054396  31.5210129  52.1111452  20.9016726  31.7190339
  52.5261325  21.8071547  30.5789607  60.0462120  12.6778073  40.9034884
  60.5644064  13.4139099  40.5781373  59.6917253  12.9842066  41.7381643
  51.6261058  17.5382754  29.0196290  50.9330303  17.6127109  28.3636326
  51.3812810  16.7743097  29.5417807  60.2974714   9.0978355  36.4235781
  60.5776468   8.4301544  37.0496207  61.0825321   9.2907451  35.9110445
  58.1008183  28.2737349  27.9860807  57.5282150  28.8927536  27.5331279
  58.6740976  28.8236711  28.5200729  64.1683573  17.5195989  40.1707356
  65.1200996  17.6194087  40.1919580  63.9987023  16.7274258  40.6805440
  62.1897952  14.6051572  40.3566757  61.5947884  14.8856585  39.6613245
  61.9047649  15.0945473  41.1283498  61.3205443  28.5574499  29.1169389
  62.2536116  28.4920061  29.3202265  61.2328655  29.3930766  28.6583922
  63.9493459  27.8740369  26.0773337  63.8707091  27.5400233  26.9709095
  64.7703126  28.3662137  26.0764809  66.6471650  20.7402109  39.2849656
  66.6147971  19.8018109  39.4709339  67.2572274  20.8186145  38.5515480
  58.4854981  19.6098162  25.3276860  59.4314086  19.4804370  25.3965278
  58.1069226  18.8712824  25.8046288  66.7966139  17.5313152  39.3307939
  66.2805188  16.7471609  39.1437868  67.6806087  17.2031869  39.4954458
  64.4576866  11.2754168  35.2903751  64.2601687  10.9669256  36.1747083
  65.0676571  12.0015807  35.4201681  70.5463497  19.9425978  39.0230144
  69.8196661  19.8081943  38.4146635  70.1310784  20.2502807  39.8286862
  58.3693674  23.6615908  46.7877517  59.2896683  23.8394507  46.9817563
  58.3343257  22.7171953  46.6357216  56.6697898  17.5348138  25.2631745
  55.7629354  17.2381251  25.3394458  56.9473879  17.2377956  24.3966031
  51.3655746  21.5716943  39.4300298  51.5841756  22.5034050  39.4488332
  51.7781520  21.2124917  40.2155102  58.2859964  12.0785028  31.4175986
  57.4760693  11.7332113  31.7931232  58.9744381  11.7692572  32.0063598
  60.2150512  11.1563075  33.0400283  60.7681551  11.5758528  33.6990306
  60.4520599  10.2298823  33.0823239  56.2383612  17.1450148  48.8203047
  56.1380339  18.0944505  48.7515138  56.0205154  16.8168387  47.9479117
  55.4396683  14.3935073  25.4043724  56.3015847  14.7189972  25.6639541
  55.6247027  13.6066569  24.8916790  47.4564099  22.4757413  37.6823913
  46.7627570  22.0611366  37.1693867  48.2037090  22.5177950  37.0857332
  63.5929320  13.2663600  32.5478947  63.0127989  13.9248404  32.1656999
  63.3265252  12.4440944  32.1366365  62.0432886  12.6668658  34.7500267
  62.5432664  12.7785192  33.9414586  62.6868494  12.3629710  35.3901076
  56.1014882  20.5747287  47.6368108  55.6181963  21.3747647  47.8431997
  56.1875821  20.5855232  46.6835552  49.3700841  22.4075667  35.5589928
  49.3471529  22.5063354  34.6071811  49.6801478  23.2540818  35.8807094
  52.6187601  23.0352938  42.2407340  53.4380490  23.5297017  42.2642177
  52.8924409  22.1184906  42.2124907  62.3754198  15.4263690  31.6035295
  61.4880053  15.7113341  31.3855490  62.7908187  15.2657454  30.7562572
  65.7268734  15.4510211  35.3189635  66.5029124  15.9406664  35.5914251
  65.0016868  15.8768265  35.7761504  68.1641292  16.1637830  36.3763575
  68.7585783  15.9233566  35.6656883  68.2367876  15.4444961  37.0037111
  61.5197411  25.1908365  25.6983315  62.2233261  25.3958367  26.3140971
  60.7960060  25.7585127  25.9632399  62.3495221  20.9418226  31.8185585
  62.2930423  21.3986778  30.9793218  62.9023564  20.1808911  31.6408428
  66.1600027  16.7307958  32.6435705  65.9036961  16.3304594  33.4743913
  65.5352895  17.4451752  32.5185844  70.4712365  19.4704031  35.1506996
  69.9111923  19.5397221  35.9238558  69.8655868  19.2945016  34.4306493
  63.4284108  25.6290894  27.7481775  64.2629712  25.1972093  27.5659250
  63.2668451  25.4572908  28.6758670  63.0830001  22.1323007  29.1138115
  63.0278804  21.9667279  28.1726559  62.4576056  22.8399040  29.2700304
  47.8722516  17.3691072  42.9399537  48.5181379  16.8590026  43.4286762
  47.6639667  18.1059753  43.5142962  60.3975908  24.4371919  48.4391677
  61.2667067  24.6112572  48.0778312  59.9182659  25.2566336  48.3167407
  56.3926126  11.6331116  28.6923433  56.3804796  12.5772956  28.8491704
  57.2849548  11.4501262  28.3982894  56.3215690  30.3100007  36.7791190
  55.3711321  30.3101868  36.6655562  56.6248176  29.5632741  36.2627224
  60.2078246   8.2273893  32.9469370  59.4410641   7.6732380  33.0926052
  60.6188951   8.2995762  33.8083521  52.2120007  14.5158689  47.0374551
  53.0751468  14.1595494  47.2477876  51.6385417  14.1772584  47.7249955
  68.8658090  36.0987973  37.7798477  68.5276601  35.9829038  36.8919012
  69.7347858  35.6979138  37.7599483  64.7244906  37.9523450  33.7695368
  64.1609771  37.8613387  33.0011655  64.6097301  37.1323354  34.2497860
  69.3477873  37.2522825  43.7384682  69.3366514  36.8575623  42.8665186
  69.5098512  36.5188898  44.3318454  62.2709337  39.4474641  36.6079588
  63.0630629  39.1065466  36.1925887  62.5105988  39.5569616  37.5281741
  70.3044464  41.6194417  29.0809833  69.6532444  42.2048498  28.6943846
  71.0988827  42.1500612  29.1404870  64.2300091  38.7083555  29.4796967
  65.0030967  38.1612542  29.3409843  64.5825490  39.5727804  29.6911428
  66.0685134  40.0359937  42.6863866  65.7775000  40.9405568  42.5710533
  66.7042118  40.0776464  43.4007936  66.9941341  37.4136785  39.2765226
  67.5904913  37.1892808  38.5622189  67.0516312  36.6721531  39.8790674
  66.5666369  34.8676221  27.1115417  66.8191890  34.3457742  26.3498880
  65.6290928  34.7042366  27.2142100  71.6109652  33.8711999  34.9190160
  72.3972741  33.4531422  34.5680577  71.8748356  34.7758091  35.0871808
  71.7819729  39.3084849  29.6178817  71.1465562  39.3819476  30.3299722
  71.4517136  39.8978448  28.9397896  66.2862658  36.7704327  29.3139792
  66.1698916  36.0949230  29.9820876  66.3964918  36.2836701  28.4971945
  68.6294199  36.2314474  33.0186481  68.2652406  35.7045095  33.7299403
  69.4861315  35.8412943  32.8452966  68.2699686  31.2604373  28.0147830
  68.4374088  32.1284610  28.3818301  68.0796855  31.4231655  27.0909119
  71.0275019  39.7221352  39.6813660  70.7275742  40.6246391  39.5729467
  70.6826079  39.4553536  40.5334813  64.4787501  36.1735149  35.7150364
  63.5537997  36.0411363  35.9228056  64.7271914  36.9529368  36.2120307
  68.2488907  33.7162031  28.9994496  68.1288532  34.1619082  29.8379977
  67.5541495  34.0647349  28.4408035  61.8396312  35.8168423  36.5494153
  61.9688693  36.0702902  37.4633565  61.1593763  36.4096131  36.2298809
  66.0095799  46.4865673  32.6484628  65.9319829  47.4373498  32.7273108
  65.4057442  46.1411545  33.3059554  68.5013029  33.6593538  45.3045995
  67.7246363  34.2187458  45.2948859  69.1403592  34.1450321  45.8260865
  66.7559401  36.4678991  44.8663962  67.4974085  37.0064035  44.5898785
  66.0496386  37.0945280  45.0235513  68.5845811  33.5480739  40.8369680
  69.4307006  33.9720152  40.9804329  68.5244448  32.8914363  41.5308243
  71.7345256  31.2085107  42.4950854  71.4906188  31.9627168  41.9585129
  72.0105186  31.5870455  43.3298101  71.2909948  30.3641540  38.0764691
  70.4294427  30.6622794  38.3681429  71.3172382  30.5811939  37.1445724
  68.1071517  38.9083731  34.4838497  68.5709863  39.1871434  33.6943120
  67.8428315  38.0067175  34.3011588  64.9995598  38.4555212  37.4218260
  65.5696955  38.8842481  36.7835745  65.5903710  38.1737797  38.1202446
  67.0440403  35.0306883  31.2928062  67.7464446  35.4827927  31.7601989
  66.7121032  34.3890702  31.9207955  65.4920765  33.6218640  45.6679272
  64.8619425  34.3034920  45.9014668  65.3856853  33.5101721  44.7232410
  60.7865737  33.2890436  36.5945196  59.9964791  33.5447964  36.1185306
  61.2776984  34.1038774  36.6997236  62.7380482  33.6535015  33.5528672
  61.9411646  33.7653709  34.0712168  62.5106075  33.9921667  32.6869563
  68.5686150  40.1779718  41.5011187  68.6330583  40.6400125  42.3369359
  67.8597074  39.5477083  41.6293497  59.0703440  33.5420926  39.0260187
  59.3211478  34.4267936  39.2917762  59.6062988  33.3625528  38.2535278
  68.2834168  41.8447826  31.3690167  68.1479843  42.6899361  31.7975015
  68.8243980  42.0467103  30.6056101  64.7701507  27.9239405  48.0304523
  64.3768453  27.3705604  48.7052167  65.5867648  28.2349984  48.4211040
  61.7363565  39.3623264  31.9418092  62.2488086  40.1566514  32.0923657
  62.3886278  38.6649554  31.8751694  63.5458450  42.4789020  34.0240846
  63.7225078  43.4006985  33.8361830  64.3415283  42.1647439  34.4535225
  67.6869468  29.3397285  45.6224779  68.4279182  29.9404438  45.5429242
  67.9187391  28.5974922  45.0642822  62.8310806  34.5253652  43.9003009
  62.7164322  33.6238909  44.2010108  61.9755324  34.7717349  43.5487825
  69.9102644  42.4671392  45.4990509  69.4666498  41.6807771  45.1811414
  70.5719858  42.6550543  44.8334400  64.6689765  43.9967194  40.0251188
  65.2197190  43.8684257  39.2528182  63.8301241  44.2962083  39.6746081
  68.4656936  40.2618322  44.3695419  68.9985273  39.5006610  44.1394727
  67.9371017  39.9691973  45.1119574  71.6326631  25.3678388  39.8989061
  71.2890901  26.2580029  39.8228171  72.0005594  25.1780045  39.0358646
  71.5976914  35.3586999  28.4061496  71.0823537  36.1291603  28.6449883
  71.3254222  34.6852135  29.0294557  69.1824025  30.2036699  33.4646734
  68.3265621  29.8143550  33.2852373  69.5950977  30.2828660  32.6046520
  70.7123172  27.7383043  37.8638294  70.2087967  27.7013178  37.0506099
  71.0053779  28.6475785  37.9234951  66.9566058  27.8221772  36.8704476
  67.8219054  27.6264581  36.5110365  67.0243567  27.5932124  37.7973833
  71.3863217  33.2314091  30.2321277  71.0813353  33.5460240  31.0831420
  72.3393659  33.3095511  30.2748610  69.8309649  39.3904314  31.8814231
  69.3031011  38.6557074  31.5687469  69.3297152  40.1678990  31.6354199
  64.5628377  30.0523980  34.2420843  65.1372129  29.8299162  33.5094036
  65.1499359  30.1212675  34.9949444  64.8897964  32.0828441  28.2616728
  64.0535276  32.4203128  28.5826003  64.7502733  31.9477421  27.3243865
  66.8651044  26.9265229  32.9695912  66.2115457  26.6114246  32.3452527
  66.8231519  26.3040970  33.6955735  67.9762249  37.2084524  24.8849204
  67.0689311  36.9773778  25.0840353  68.4733281  36.4122144  25.0723186
  70.8830328  45.9182031  27.8045890  70.2092027  46.2213728  28.4130848
  71.2696150  46.7211112  27.4551347  70.0988785  33.4147163  37.2943560
  69.1811346  33.6362110  37.1365248  70.5148928  33.4893473  36.4355267
  70.8823833  34.8138578  32.4246240  71.6295651  35.3259976  32.1153362
  71.1515422  34.4922631  33.2850633  69.1550483  37.3097119  29.4073194
  68.2461702  37.0256152  29.5045664  69.1845566  37.7296198  28.5476501
  59.7238653  35.0302633  33.3888396  59.5263053  34.4371994  32.6639463
  59.1685317  34.7254843  34.1064335  67.7035377  34.9225740  35.5082990
  67.7583987  33.9699576  35.4325466  66.8926579  35.0785179  35.9924288
  68.8526570  38.8505863  26.7461273  68.4146000  38.1341722  26.2866910
  69.5937011  39.0781978  26.1846364  65.6427737  33.5402800  33.2673368
  64.8295602  33.8396970  33.6738561  66.1386731  33.1458488  33.9847851
  67.7936315  43.5360556  35.2007633  67.7512493  43.7621403  34.2716165
  68.7099013  43.3023931  35.3493434  71.2401948  34.0044624  42.0988262
  71.5951336  34.2316097  42.9582728  71.8874080  34.3363001  41.4765518
  65.1341811  31.1121155  38.8834603  65.7741191  30.9709914  38.1857567
  64.3019342  30.8255668  38.5073205  65.9102115  40.4123585  34.9969596
  66.7042714  39.9173906  34.7952171  65.1993808  39.8841449  34.6337301
  70.7296960  42.7941681  39.3481963  70.7833982  43.3632617  40.1159679
  69.8611741  42.9643566  38.9836001  62.2184879  34.5566667  31.0729349
  61.2882467  34.4951123  31.2899311  62.3142351  34.0342620  30.2765990
  62.1370428  31.0821480  33.6607590  62.3977245  31.9966813  33.5516751
  62.9587600  30.6145923  33.8104203  63.6095353  32.4959237  40.8306415
  64.2818407  32.2876599  40.1819064  62.7825140  32.2981323  40.3911647
  69.5120925  29.1221178  42.8472076  68.8648840  29.8211128  42.7536552
  70.2821941  29.5557322  43.2148324  69.6885060  36.9601943  40.9068895
  70.6177120  37.1113103  40.7337863  69.2676090  37.0485964  40.0517542
  68.4873391  40.9852607  38.6767433  68.3484477  40.6171392  39.5493371
  67.6987988  41.5000247  38.5051391  69.0821543  46.0861704  30.0192969
  69.2573299  45.6149747  30.8338592  68.3954331  46.7127470  30.2474230
  70.0378606  40.3634210  36.0656271  69.7028439  40.3234980  36.9613921
  69.5382552  39.6978926  35.5926681  64.0122850  35.7701840  41.5908852
  63.8742648  35.0382079  42.1920391  64.9227774  35.6810740  41.3093040
  66.6405151  35.4821799  41.0792532  67.3504770  34.8414992  41.0379150
  66.5974459  35.7334694  42.0018712  65.3534085  32.4687017  42.8988171
  64.8171442  32.0177756  43.5509767  64.7650794  32.6032926  42.1558635
  63.6482629  49.2351067  36.7932830  63.8879227  49.8669591  37.4711848
  62.8051825  48.8839107  37.0798189  64.7636344  31.9275669  25.4614635
  63.8865810  31.8064470  25.0976881  65.2394097  31.1361747  25.2093523
  61.0873206  31.6043025  39.9841166  61.0031395  30.9968695  39.2491575
  60.2655913  32.0952043  39.9850662  68.1610490  45.0430189  39.1974334
  68.0880662  45.8485161  39.7093638  67.7187884  45.2422155  38.3722355
  67.9500270  44.2801959  32.7077155  67.1667792  44.8223639  32.8015380
  68.6493015  44.7975939  33.1071396  71.2596920  30.0896589  35.3511361
  71.7565620  29.3366551  35.0312431  70.4883902  30.1260905  34.7854570
  70.6209174  44.9417023  41.3532492  71.3337146  45.5764488  41.2808394
  70.1299203  45.0380889  40.5372494  72.3426701  38.8468276  32.9249784
  71.4082980  38.9669738  32.7554488  72.5203369  37.9440743  32.6609794
  67.8431889  32.2313972  35.0783045  67.4729676  31.6785012  35.7663951
  68.3390981  31.6272105  34.5258045  65.6721087  42.6911467  42.1738063
  66.3730547  43.3247950  42.3267457  65.2016202  43.0326198  41.4133702
  70.4329547  45.2815767  34.1018784  70.6151942  44.4637423  34.5646536
  71.2562533  45.4983459  33.6643674  70.7671713  44.2083952  31.3633832
  71.2959479  43.6976407  30.7503994  71.0299932  43.8926483  32.2279365
  69.5209946  35.9875885  46.4856651  68.8450583  35.8870014  47.1559026
  70.3437580  35.8315099  46.9492648  61.2688806  42.2247822  39.1069166
  61.8542242  41.4791510  39.2397070  61.0713644  42.5351778  39.9905830
  64.1227461  45.2599069  34.1231608  63.4537836  45.7445197  33.6395648
  63.9840330  45.5068289  35.0374987  68.2632729  47.2942813  40.7214267
  68.8151037  47.4574434  41.4863352  68.6038923  47.8847250  40.0494291
  63.2397223  29.6417962  41.3236151  63.3038549  30.5032793  40.9113549
  63.1764343  29.0291964  40.5908510  62.7149495  31.7141095  44.9709186
  63.3421534  31.3318172  45.5846710  61.8577414  31.4955297  45.3364878
  59.4915038  33.5217524  30.9027540  59.7868479  32.6128202  30.8494594
  58.5903074  33.5005263  30.5808543  71.4001117  45.2424788  37.7077949
  71.2752256  44.4414528  37.1988894  72.0580208  45.7370981  37.2191919
  63.0209285  31.5973521  36.8855089  62.2995871  32.2109488  36.7462562
  63.8102541  32.1331285  36.8071735  65.8235598  28.9327947  43.1595741
  66.3470000  29.1790244  43.9222050  65.6047932  29.7647982  42.7398878
  61.2202879  31.2031622  31.0266865  60.8915586  30.3229001  30.8441971
  61.5742250  31.1479290  31.9143255  70.4682458  42.8386524  35.5361851
  70.3207421  41.9103232  35.7169421  71.2935952  42.8606615  35.0518926
  64.3344703  31.4904591  31.3942343  64.6740775  32.0190513  30.6720952
  64.7816823  31.8284998  32.1700910  67.0288143  29.8741642  40.8445411
  66.6884964  29.0749455  41.2466091  66.3227150  30.1743353  40.2722244
  67.6804615  26.9590955  39.2972734  68.5030685  26.4851433  39.1751625
  67.9242679  27.7381438  39.7971421  66.3212850  29.9879213  29.5935636
  67.0421212  30.3660466  29.0899353  65.6978154  30.7068090  29.6970614
  70.4643973  30.6924362  30.5293968  70.6807587  31.5749000  30.2282796
  69.9838040  30.3010575  29.7999610  65.2043194  33.6510075  37.1064713
  65.0587775  33.9650378  37.9988994  64.7268398  34.2694976  36.5535611
  67.0639577  30.6412623  37.1545602  67.0501146  29.7453717  36.8177900
  67.7812005  30.6483287  37.7883888  68.9165708  31.0749963  39.1998730
  68.6583485  31.9967034  39.1983060  68.3850748  30.6780398  39.8899194
  59.6788856  36.1915420  40.0452374  59.1342324  36.9675228  40.1772648
  60.5568206  36.5386224  39.8871495  66.4676473  29.5227004  32.4233173
  66.5892384  28.5943650  32.6224060  66.1778515  29.5365689  31.5111488
  69.3367663  27.2081914  35.5599892  69.3589360  27.2721247  34.6051872
  69.7535722  26.3686423  35.7540399  60.4654878  35.3185316  42.9382531
  59.7236614  35.4667951  43.5247161  60.1447622  35.5793582  42.0749280
  68.4098541  44.8601294  42.7362921  68.7185667  44.6150441  43.6085620
  69.2074023  45.0647933  42.2481791  68.4319153  47.0139204  34.9668297
  67.9924143  46.5215582  35.6601154  69.1827270  46.4712171  34.7260373
  60.9111492  43.2050745  34.9692926  61.7369512  42.9054517  34.5891569
  60.5605544  42.4358367  35.4182714  65.8793025  42.5577213  37.0390599
  65.2573034  41.8947918  36.7392827  66.5497892  42.5838345  36.3564247
  59.1120097  41.1237071  35.9281859  58.2752005  40.6959245  35.7465860
  59.0843742  41.3169514  36.8652650  65.9517552  31.0359001  46.6323105
  66.0005708  31.9121124  46.2500875  66.4940067  30.4936394  46.0594748
  65.4406532  41.1081136  30.5149060  65.5894652  41.7916601  29.8615732
  66.2472975  41.0886226  31.0298515  68.1816841  31.7890373  43.3869464
  67.3120150  32.0823939  43.1152052  68.4176321  32.3730818  44.1076727
  63.1959165  37.1346314  31.5210129  62.9505207  36.2308644  31.7190339
  63.3655079  37.1363464  30.5789607  70.8855875  28.0069990  40.9034884
  71.4037819  28.7431017  40.5781373  70.5311007  28.3133984  41.7381643
  62.4654812  32.8674671  29.0196290  61.7724057  32.9419026  28.3636326
  62.2206564  32.1035015  29.5417807  71.1368469  24.4270273  36.4235781
  71.4170223  23.7593462  37.0496207  71.9219076  24.6199368  35.9110445
  68.9401937  43.6029267  27.9860807  68.3675904  44.2219454  27.5331279
  69.5134731  44.1528628  28.5200729  69.3248736  34.9390079  25.3276860
  70.2707841  34.8096288  25.3965278  68.9462981  34.2004741  25.8046288
  69.2087428  38.9907826  46.7877517  70.1290438  39.1686425  46.9817563
  69.1737011  38.0463871  46.6357216  67.5091653  32.8640056  25.2631745
  66.6023108  32.5673169  25.3394458  67.7867634  32.5669874  24.3966031
  58.4269593  34.1846419  35.7130791  58.1072378  33.3311727  35.4205165
  57.8803022  34.3994997  36.4688759  62.2049501  36.9008860  39.4300298
  62.4235511  37.8325968  39.4488332  62.6175275  36.5416835  40.2155102
  69.1253719  27.4076946  31.4175986  68.3154447  27.0624030  31.7931232
  69.8138136  27.0984489  32.0063598  71.0544267  26.4854992  33.0400283
  71.6075306  26.9050446  33.6990306  71.2914353  25.5590740  33.0823239
  67.0777366  32.4742066  48.8203047  66.9774093  33.4236423  48.7515138
  66.8598908  32.1460305  47.9479117  66.2790438  29.7226991  25.4043724
  67.1409602  30.0481889  25.6639541  66.4640782  28.9358487  24.8916790
  66.9408636  35.9039205  47.6368108  66.4575718  36.7039565  47.8431997
  67.0269575  35.9147150  46.6835552  60.2094596  37.7367584  35.5589928
  60.1865284  37.8355272  34.6071811  60.5195232  38.5832735  35.8807094
  62.8681974  39.7943740  39.6736542  63.8225227  39.7627682  39.6066474
  62.6694497  39.3334363  40.4886768  63.4581356  38.3644856  42.2407340
  64.2774245  38.8588934  42.2642177  63.7318164  37.4476824  42.2124907
  64.3801328  46.2332676  36.9025183  64.2633713  47.1778109  36.8003873
  63.5593775  45.9306238  37.2910982  58.7116270  32.6982989  42.9399537
  59.3575134  32.1881943  43.4286762  58.5033421  33.4351671  43.5142962
  71.2369662  39.7663837  48.4391677  72.1060822  39.9404489  48.0778312
  70.7576414  40.5858254  48.3167407  67.2319881  26.9623034  28.6923433
  67.2198550  27.9064874  28.8491704  68.1243302  26.7793179  28.3982894
  65.4055843  46.8860938  40.1181111  66.3083089  46.9184548  40.4347606
  65.1793213  45.9561389  40.1327447  67.1609445  45.6391924  36.7791190
  66.2105076  45.6393786  36.6655562  67.4641931  44.8924659  36.2627224
  71.0472000  23.5565811  32.9469370  70.2804396  23.0024297  33.0926052
  71.4582705  23.6287679  33.8083521  63.0513761  29.8450606  47.0374551
  63.9145223  29.4887411  47.2477876  62.4779172  29.5064501  47.7249955
  71.6259492  48.6182353  36.5945196  70.8358546  48.8739882  36.1185306
  72.1170739  49.4330691  36.6997236  69.9097195  48.8712844  39.0260187
  70.1605233  49.7559854  39.2917762  70.4456743  48.6917445  38.2535278
  70.5406236  53.0203836  32.7177663  71.3781458  53.4300844  32.5011371
  70.7184504  52.0803278  32.6877857  70.5632408  50.3594551  33.3888396
  70.3656807  49.7663912  32.6639463  70.0079072  50.0546761  34.1064335
  67.1232239  52.0444746  35.5556142  67.8103278  51.7306476  34.9677157
  66.9680367  52.9486111  35.2823393  71.9266961  46.9334943  39.9841166
  71.8425150  46.3260612  39.2491575  71.1049667  47.4243961  39.9850662
  66.7000215  50.1245340  37.8273609  66.7384314  49.5908930  38.6210727
  66.1940508  49.5980545  37.2084586  70.3308792  48.8509442  30.9027540
  70.6262233  47.9420120  30.8494594  69.4296828  48.8297181  30.5808543
  72.0596634  46.5323539  31.0266865  71.7309340  45.6520918  30.8441971
  72.4136005  46.4771208  31.9143255  70.5182611  51.5207337  40.0452374
  69.9736079  52.2967145  40.1772648  71.3961961  51.8678142  39.8871495
  71.3048633  50.6477234  42.9382531  70.5630369  50.7959869  43.5247161
  70.9841377  50.9085499  42.0749280  69.9513851  56.4528989  35.9281859
  69.1145760  56.0251163  35.7465860  69.9237497  56.6461432  36.8652650
  69.2663348  49.5138337  35.7130791  68.9466132  48.6603645  35.4205165
  68.7196776  49.7286915  36.4688759  69.1351608  53.1341248  37.6823913
  68.4415079  52.7195201  37.1693867  69.8824599  53.1761785  37.0857332
  71.0488350  53.0659502  35.5589928  71.0259038  53.1647189  34.6071811
  71.3588987  53.9124653  35.8807094  72.0625957  60.6655277  36.6906740
  71.9280425  59.9055678  36.1244738  71.6458019  61.3896177  36.2235529
  69.5510025  48.0274907  42.9399537  70.1968888  47.5173861  43.4286762
  69.3427176  48.7643589  43.5142962  55.1702046   8.1635878  19.3729934
  55.0926075   9.1143703  19.4518415  54.5663689   7.8181750  20.0304861
  53.8296012   5.6737399  26.7496495  54.3803437   5.5454462  25.9773489
  52.9907488   5.9732288  26.3991387  60.0436575   7.5952236  14.5291197
  59.3698274   7.8983933  15.1376155  60.4302397   8.3981317  14.1796654
  58.2427790   7.7631909  16.7438276  58.4179546   7.2919952  17.5583899
  57.5560578   8.3897675  16.9719537  52.8088875  10.9121272  23.5178136
  53.0485474  11.5439796  24.1957155  51.9658072  10.5609312  23.8043496
  57.3216737   6.7200394  25.9219640  57.2486909   7.5255366  26.4338945
  56.8794130   6.9192360  25.0967662  57.1106517   5.9572164  19.4322462
  56.3274039   6.4993844  19.5260686  57.8099262   6.4746144  19.8316703
  59.7815421   6.6187228  28.0777799  60.4943393   7.2534693  28.0053700
  59.2905449   6.7151094  27.2617801  53.2833708   6.9369274  20.8476915
  52.6144083   7.4215402  20.3640955  53.1446577   7.1838494  21.7620293
  57.4238976   8.9713017  27.4459573  57.9757284   9.1344639  28.2108658
  57.7645170   9.5617455  26.7739598  57.5704787   6.5371499  29.4608228
  57.8791914   6.2920646  30.3330927  58.3680269   6.7418138  28.9727098
  57.5925399   8.6909409  21.6913604  57.1530390   8.1985787  22.3846461
  58.3433516   8.1482376  21.4505679  50.0717738   4.8820950  21.6938232
  50.8975758   4.5824721  21.3136876  49.7211790   4.1128572  22.1428021
  48.2726344   2.8007276  22.6527166  47.4358252   2.3729450  22.4711167
  48.2449989   2.9939719  23.5897957  50.3838449   7.0133564  23.4152047
  50.2492917   6.2533965  22.8490045  49.9670512   7.7374464  22.9480835
  53.5407575   7.9102881  23.6270489  53.4239959   8.8548313  23.5249180
  52.7200021   7.6076442  24.0156288  54.5662089   8.5631143  26.8426418
  55.4689336   8.5954753  27.1592913  54.3399459   7.6331594  26.8572753
  56.3215691   7.3162129  23.5036496  55.3711322   7.3163991  23.3900869
  56.6248177   6.5694864  22.9872531  68.8658091  13.1050096  24.5043783
  68.5276603  12.9891161  23.6164318  69.7347859  12.7041261  24.4844790
  64.7244907  14.9585572  20.4940674  64.1609772  14.8675509  19.7256962
  64.6097302  14.1385477  20.9743167  69.3477874  14.2584948  30.4629989
  69.3366515  13.8637746  29.5910493  69.5098514  13.5251020  31.0563760
  62.2709339  16.4536764  23.3324895  63.0630631  16.1127589  22.9171194
  62.5105989  16.5631739  24.2527048  70.3044466  18.6256540  15.8055139
  69.6532445  19.2110620  15.4189153  71.0988828  19.1562735  15.8650177
  64.2300093  15.7145677  16.2042274  65.0030969  15.1674664  16.0655149
  64.5825492  16.5789926  16.4156735  66.0685135  17.0422059  29.4109173
  65.7775001  17.9467690  29.2955839  66.7042120  17.0838587  30.1253242
  66.9941342  14.4198908  26.0010533  67.5904914  14.1954930  25.2867495
  67.0516314  13.6783653  26.6035980  68.6294200  13.2376596  19.7431788
  68.2652407  12.7107217  20.4544709  69.4861316  12.8475065  19.5698273
  71.0275020  16.7283475  26.4058967  70.7275743  17.6308514  26.2974774
  70.6826080  16.4615658  27.2580119  64.4787502  13.1797272  22.4395671
  63.5537998  13.0473486  22.6473363  64.7271915  13.9591491  22.9365613
  61.8396313  12.8230545  23.2739460  61.9688694  13.0765024  24.1878872
  61.1593764  13.4158253  22.9544115  66.0095800  23.4927795  19.3729934
  65.9319830  24.4435620  19.4518415  65.4057444  23.1473668  20.0304861
  68.5013030  10.6655661  32.0291301  67.7246364  11.2249581  32.0194166
  69.1403593  11.1512444  32.5506171  66.7559402  13.4741114  31.5909268
  67.4974087  14.0126158  31.3144092  66.0496388  14.1007403  31.7480820
  68.5845812  10.5542861  27.5614987  69.4307007  10.9782275  27.7049636
  68.5244450   9.8976486  28.2553550  68.1071518  15.9145853  21.2083804
  68.5709864  16.1933556  20.4188426  67.8428316  15.0129298  21.0256894
  64.9995599  15.4617335  24.1463567  65.5696956  15.8904603  23.5081051
  65.5903711  15.1799919  24.8447753  67.0440404  12.0369006  18.0173369
  67.7464448  12.4890049  18.4847295  66.7121033  11.3952824  18.6453262
  65.4920766  10.6280762  32.3924578  64.8619427  11.3097043  32.6259975
  65.3856854  10.5163844  31.4477716  60.7865738  10.2952558  23.3190502
  59.9964792  10.5510087  22.8430613  61.2776986  11.1100896  23.4242543
  62.7380484  10.6597138  20.2773979  61.9411647  10.7715832  20.7957475
  62.5106076  10.9983790  19.4114870  68.5686151  17.1841841  28.2256494
  68.6330584  17.6462248  29.0614666  67.8597075  16.5539206  28.3538804
  59.0703441  10.5483049  25.7505493  59.3211480  11.4330059  26.0163069
  59.6062990  10.3687650  24.9780585  68.2834169  18.8509948  18.0935474
  68.1479844  19.6961484  18.5220322  68.8243982  19.0529226  17.3301408
  61.7363566  16.3685386  18.6663399  62.2488087  17.1628637  18.8168964
  62.3886279  15.6711677  18.5997001  63.5458451  19.4851143  20.7486152
  63.7225079  20.4069107  20.5607136  64.3415285  19.1709562  21.1780532
  62.8310808  11.5315774  30.6248315  62.7164323  10.6301032  30.9255414
  61.9755325  11.7779471  30.2733132  69.9102645  19.4733515  32.2235816
  69.4666500  18.6869893  31.9056721  70.5719859  19.6612665  31.5579707
  64.6689767  21.0029316  26.7496495  65.2197192  20.8746380  25.9773489
  63.8301242  21.3024205  26.3991387  68.4656938  17.2680444  31.0940726
  68.9985274  16.5068732  30.8640034  67.9371019  16.9754096  31.8364880
  59.7012483  14.6974041  19.4422970  60.5387705  15.1071049  19.2256677
  59.8790751  13.7573483  19.4123164  69.8309650  16.3966437  18.6059538
  69.3031012  15.6619196  18.2932775  69.3297153  17.1741113  18.3599506
  70.8830329  22.9244154  14.5291197  70.2092028  23.2275851  15.1376155
  71.2696151  23.7273234  14.1796654  70.0988786  10.4209285  24.0188866
  69.1811347  10.6424232  23.8610554  70.5148930  10.4955596  23.1600574
  59.7238654  12.0364756  20.1133703  59.5263054  11.4434117  19.3884770
  59.1685318  11.7316966  20.8309642  67.7035378  11.9287862  22.2328296
  67.7583988  10.9761699  22.1570773  66.8926580  12.0847301  22.7169595
  65.6427738  10.5464922  19.9918675  64.8295603  10.8459093  20.3983867
  66.1386732  10.1520611  20.7093157  67.7936316  20.5422679  21.9252940
  67.7512495  20.7683525  20.9961472  68.7099015  20.3086054  22.0738741
  71.2401950  11.0106747  28.8233569  71.5951337  11.2378220  29.6828035
  71.8874081  11.3425123  28.2010824  65.9102117  17.4185708  21.7214902
  66.7042715  16.9236028  21.5197477  65.1993809  16.8903571  21.3582608
  70.7296961  19.8003804  26.0727270  70.7833983  20.3694740  26.8404986
  69.8611742  19.9705689  25.7081307  62.2184880  11.5628790  17.7974655
  61.2882468  11.5013245  18.0144617  62.3142352  11.0404743  17.0011296
  62.1370429   8.0883603  20.3852897  62.3977246   9.0028936  20.2762057
  62.9587601   7.6208045  20.5349510  63.6095354   9.5021360  27.5551721
  64.2818408   9.2938722  26.9064370  62.7825141   9.3043446  27.1156954
  69.6885061  13.9664066  27.6314202  70.6177121  14.1175225  27.4583169
  69.2676091  14.0548086  26.7762848  68.4873393  17.9914730  25.4012740
  68.3484478  17.6233514  26.2738678  67.6987989  18.5062369  25.2296697
  69.0821545  23.0923826  16.7438276  69.2573300  22.6211870  17.5583899
  68.3954333  23.7189593  16.9719537  70.0378608  17.3696333  22.7901577
  69.7028440  17.3297103  23.6859227  69.5382553  16.7041049  22.3171988
  64.0122852  12.7763963  28.3154159  63.8742650  12.0444202  28.9165698
  64.9227775  12.6872863  28.0338346  66.6405152  12.4883922  27.8037838
  67.3504771  11.8477114  27.7624457  66.5974460  12.7396817  28.7264019
  65.3534086   9.4749140  29.6233478  64.8171443   9.0239878  30.2755074
  64.7650795   9.6095049  28.8803942  63.6482630  26.2413189  23.5178136
  63.8879228  26.8731713  24.1957155  62.8051826  25.8901229  23.8043496
  56.2838485  13.7214951  22.2801448  56.9709525  13.4076681  21.6922464
  56.1286614  14.6256316  22.0068700  61.0873208   8.6105148  26.7086472
  61.0031396   8.0030817  25.9736882  60.2655914   9.1014166  26.7095968
  68.1610492  22.0492312  25.9219640  68.0880663  22.8547283  26.4338945
  67.7187885  22.2484278  25.0967662  67.9500271  21.2864082  19.4322462
  67.1667793  21.8285762  19.5260686  68.6493016  21.8038061  19.8316703
  70.6209175  21.9479146  28.0777799  71.3337147  22.5826611  28.0053700
  70.1299204  22.0443012  27.2617801  65.6721089  19.6973589  28.8983370
  66.3730548  20.3310072  29.0512764  65.2016204  20.0388321  28.1379009
  70.4329549  22.2877890  20.8264090  70.6151943  21.4699546  21.2891843
  71.2562535  22.5045582  20.3888980  70.7671714  21.2146075  18.0879139
  71.2959481  20.7038530  17.4749301  71.0299934  20.8988605  18.9524672
  69.5209948  12.9938008  33.2101957  68.8450585  12.8932137  33.8804332
  70.3437582  12.8377221  33.6737954  61.2688807  19.2309944  25.8314472
  61.8542244  18.4853632  25.9642377  61.0713645  19.5413901  26.7151136
  64.1227462  22.2661192  20.8476915  63.4537837  22.7507319  20.3640955
  63.9840332  22.5130412  21.7620293  55.8606462  11.8015544  24.5518916
  55.8990561  11.2679135  25.3456034  55.3546754  11.2750750  23.9329893
  68.2632731  24.3004935  27.4459573  68.8151039  24.4636557  28.2108658
  68.6038924  24.8909373  26.7739598  62.7149496   8.7203218  31.6954492
  63.3421535   8.3380295  32.3092016  61.8577415   8.5017419  32.0610185
  59.4915039  10.5279647  17.6272847  59.7868480   9.6190325  17.5739901
  58.5903075  10.5067386  17.3053849  71.4001118  22.2486911  24.4323255
  71.2752257  21.4476651  23.9234201  72.0580209  22.7433104  23.9437225
  63.0209286   8.6035643  23.6100396  62.2995872   9.2171611  23.4707869
  63.8102542   9.1393408  23.5317042  61.2202881   8.2093744  17.7512172
  60.8915587   7.3291123  17.5687278  61.5742251   8.1541413  18.6388561
  70.4682460  19.8448647  22.2607158  70.3207422  18.9165354  22.4414728
  71.2935953  19.8668738  21.7764233  64.3344704   8.4966714  18.1187650
  64.6740776   9.0252635  17.3966258  64.7816824   8.8347120  18.8946216
  65.2043195  10.6572198  23.8310019  65.0587776  10.9712501  24.7234301
  64.7268399  11.2757098  23.2780918  59.6788857  13.1977542  26.7697681
  59.1342325  13.9737350  26.9017955  60.5568207  13.5448347  26.6116802
  60.4654879  12.3247439  29.6627838  59.7236615  12.4730074  30.2492468
  60.1447624  12.5855704  28.7994587  68.4098542  21.8663417  29.4608228
  68.7185668  21.6212564  30.3330927  69.2074024  22.0710055  28.9727098
  68.4319154  24.0201326  21.6913604  67.9924144  23.5277705  22.3846461
  69.1827271  23.4774294  21.4505679  60.9111493  20.2112867  21.6938232
  61.7369513  19.9116639  21.3136876  60.5605545  19.4420490  22.1428021
  65.8793026  19.5639335  23.7635906  65.2573035  18.9010040  23.4638134
  66.5497893  19.5900467  23.0809554  59.1120098  18.1299194  22.6527166
  58.2752006  17.7021368  22.4711167  59.0843743  18.3231637  23.5897957
  65.4406533  18.1143259  17.2394366  65.5894653  18.7978723  16.5861039
  66.2472976  18.0948349  17.7543822  63.1959166  14.1408436  18.2455435
  62.9505208  13.2370766  18.4435645  63.3655081  14.1425587  17.3034913
  62.4654814   9.8736794  15.7441597  61.7724058   9.9481149  15.0881633
  62.2206565   9.1097138  16.2663114  68.9401939  20.6091389  14.7106114
  68.3675906  21.2281576  14.2576586  69.5134732  21.1590751  15.2446036
  69.2087430  15.9969948  33.5122823  70.1290439  16.1748547  33.7062870
  69.1737013  15.0525993  33.3602522  58.4269595  11.1908542  22.4376098
  58.1072379  10.3373850  22.1450472  57.8803023  11.4057120  23.1934065
  62.2049502  13.9070983  26.1545604  62.4235512  14.8388091  26.1733638
  62.6175276  13.5478957  26.9400408  67.0777367   9.4804189  35.5448353
  66.9774094  10.4298546  35.4760444  66.8598910   9.1522427  34.6724423
  58.2957855  14.8111453  24.4069219  57.6021326  14.3965406  23.8939174
  59.0430846  14.8531990  23.8102638  66.9408638  12.9101327  34.3613415
  66.4575719  13.7101688  34.5677304  67.0269577  12.9209272  33.4080859
  60.2094597  14.7429707  22.2835234  60.1865285  14.8417394  21.3317117
  60.5195234  15.5894858  22.6052400  62.8681975  16.8005862  26.3981849
  63.8225229  16.7689804  26.3311780  62.6694499  16.3396486  27.2132075
  63.4581357  15.3706978  28.9652646  64.2774246  15.8651057  28.9887484
  63.7318165  14.4538946  28.9370214  61.2232204  22.3425482  23.4152047
  61.0886672  21.5825882  22.8490045  60.8064266  23.0666381  22.9480835
  64.3801330  23.2394799  23.6270489  64.2633714  24.1840231  23.5249180
  63.5593776  22.9368360  24.0156288  58.7116271   9.7045112  29.6644843
  59.3575135   9.1944066  30.1532069  58.5033422  10.4413794  30.2388269
  71.2369664  16.7725959  35.1636984  72.1060823  16.9466612  34.8023619
  70.7576415  17.5920376  35.0412713  65.4055844  23.8923061  26.8426418
  66.3083090  23.9246671  27.1592913  65.1793214  22.9623511  26.8572753
  67.1609446  22.6454047  23.5036496  66.2105077  22.6455909  23.3900869
  67.4641932  21.8986782  22.9872531  71.6259493  25.6244476  23.3190502
  70.8358547  25.8802004  22.8430613  72.1170740  26.4392814  23.4242543
  69.9097196  25.8774966  25.7505493  70.1605234  26.7621976  26.0163069
  70.4456744  25.6979568  24.9780585  70.5406238  30.0265958  19.4422970
  71.3781460  30.4362967  19.2256677  70.7184505  29.0865400  19.4123164
  70.5632409  27.3656674  20.1133703  70.3656809  26.7726034  19.3884770
  70.0079073  27.0608884  20.8309642  67.1232240  29.0506869  22.2801448
  67.8103280  28.7368599  21.6922464  66.9680369  29.9548233  22.0068700
  71.9266962  23.9397065  26.7086472  71.8425151  23.3322735  25.9736882
  71.1049668  24.4306084  26.7095968  66.7000216  27.1307462  24.5518916
  66.7384316  26.5971053  25.3456034  66.1940509  26.6042668  23.9329893
  70.3308794  25.8571564  17.6272847  70.6262235  24.9482243  17.5739901
  69.4296829  25.8359304  17.3053849  72.0596635  23.5385662  17.7512172
  71.7309341  22.6583041  17.5687278  72.4136006  23.4833331  18.6388561
  70.5182612  28.5269460  26.7697681  69.9736080  29.3029268  26.9017955
  71.3961962  28.8740264  26.6116802  71.3048634  27.6539356  29.6627838
  70.5630370  27.8021992  30.2492468  70.9841378  27.9147622  28.7994587
  69.9513852  33.4591111  22.6527166  69.1145761  33.0313286  22.4711167
  69.9237498  33.6523555  23.5897957  69.2663349  26.5200459  22.4376098
  68.9466133  25.6665768  22.1450472  68.7196777  26.7349038  23.1934065
  69.1351609  30.1403371  24.4069219  68.4415081  29.7257324  23.8939174
  69.8824600  30.1823907  23.8102638  71.0488352  30.0721625  22.2835234
  71.0259040  30.1709312  21.3317117  71.3588988  30.9186776  22.6052400
  72.0625958  37.6717399  23.4152047  71.9280426  36.9117800  22.8490045
  71.6458021  38.3958299  22.9480835  69.5510026  25.0337030  29.6644843
  70.1968889  24.5235984  30.1532069  69.3427177  25.7705711  30.2388269
   0.8722208  25.6175305  57.1582428   1.3973532  25.9562577  56.4331748
   0.7844561  24.6822320  56.9745563   7.0205854  36.1460547  64.3946336
   7.6584264  36.0267294  63.6909676   6.9026697  37.0941391  64.4534288
   3.8295560  36.0987975  64.3307860   3.4914072  35.9829040  63.4428395
   4.6985329  35.6979140  64.3108867   5.2681935  41.6194419  55.6319216
   4.6169915  42.2048500  55.2453230   6.0626298  42.1500614  55.6914254
   1.9578811  37.4136787  65.8274610   2.5542384  37.1892810  65.1131572
   2.0153783  36.6721533  66.4300057   6.5747123  33.8712001  61.4699544
   7.3610212  33.4531424  61.1189961   6.8385827  34.7758093  61.6381192
   6.7457200  39.3084851  56.1688201   6.1103033  39.3819478  56.8809105
   6.4154606  39.8978450  55.4907280  11.9755550  33.8087234  62.3732522
  12.7080722  33.2386451  62.6070352  11.2194905  33.4208834  62.8139028
   1.2500129  36.7704328  55.8649175   1.1336387  36.0949232  56.5330260
   1.3602388  36.2836702  55.0481329   3.5931669  36.2314475  59.5695865
   3.2289877  35.7045096  60.2808786   4.4498785  35.8412945  59.3962350
   3.2337156  31.2604375  54.5657213   3.4011559  32.1284612  54.9327684
   3.0434325  31.4231657  53.6418502   5.9912490  39.7221354  66.2323044
   5.6913213  40.6246393  66.1238851   5.6463549  39.4553537  67.0844196
   9.3909633  32.2403894  63.9120481   8.4826511  32.1719303  63.6179242
   9.3397229  32.7175839  64.7402306   3.2126377  33.7162033  55.5503880
   3.0926002  34.1619083  56.3889360   2.5178966  34.0647350  54.9917418
  11.2571280  30.4420333  65.6898355  10.6145660  30.7352866  65.0438149
  10.7526208  30.3273253  66.4951551   8.9111443  34.1883506  56.3784214
   9.8229300  34.4210893  56.2031912   8.4021091  34.7720550  55.8159293
   7.5181026  39.1709324  63.7697796   6.8889888  39.3355038  63.0673863
   7.1306688  39.5850934  64.5408760  11.3970258  40.1063762  61.1242159
  10.7121296  40.4862664  60.5739193  11.4814107  40.7159089  61.8574107
   8.6521189  37.7523721  67.7237503   8.8638084  38.3955481  67.0471884
   8.6050938  36.9186038  67.2559433   3.0708988  38.9083732  61.0347881
   3.5347333  39.1871435  60.2452503   2.8065786  38.0067177  60.8520971
   2.0077874  35.0306885  57.8437446   2.7101917  35.4827928  58.3111372
   1.6758502  34.3890704  58.4717339   9.7667017  40.6295677  65.8959860
  10.5884461  40.2275864  65.6142542   9.7629420  40.5263911  66.8475976
  17.8573010  36.9734425  62.2444832  17.1036719  36.4041823  62.0888836
  17.9920551  36.9397090  63.1915466   3.2471638  41.8447827  57.9199551
   3.1117313  42.6899363  58.3484399   3.7881451  42.0467105  57.1565485
   6.5614385  35.3587000  54.9570880   6.0461008  36.1291605  55.1959267
   6.2891693  34.6852137  55.5803941   4.1461496  30.2036701  60.0156118
   3.2903092  29.8143552  59.8361757   4.5588447  30.2828662  59.1555903
  11.5348659  38.1119355  56.8924053  10.7578101  37.7730515  56.4479215
  12.2140140  38.1171978  56.2179018   6.3500688  33.2314092  56.7830661
   6.0450823  33.5460242  57.6340804   7.3031130  33.3095512  56.8257994
   4.7947120  39.3904316  58.4323615   4.2668481  38.6557075  58.1196852
   4.2934622  40.1678992  58.1863583   9.7739966  37.5853336  63.5490661
   9.1163640  38.2752598  63.6370790  10.5780365  37.9749768  63.8924647
   8.5845424  35.9397709  61.5994603   9.0977306  36.5727701  62.1016313
   9.2346648  35.3398904  61.2337963   1.8288515  26.9265231  59.5205296
   1.1752927  26.6114248  58.8961910   1.7868989  26.3040971  60.2465119
   2.9399720  37.2084526  51.4358588   2.0326782  36.9773780  51.6349737
   3.4370752  36.4122145  51.6232569   5.8467799  45.9182033  54.3555274
   5.1729497  46.2213730  54.9640232   6.2333621  46.7211114  54.0060731
   5.0626255  33.4147165  63.8452943   4.1448817  33.6362112  63.6874631
   5.4786399  33.4893475  62.9864651   5.8461303  34.8138580  58.9755624
   6.5933122  35.3259977  58.6662746   6.1152893  34.4922633  59.8360017
   4.1187953  37.3097121  55.9582578   3.2099172  37.0256154  56.0555048
   4.1483037  37.7296199  55.0985885   9.3507221  40.9203710  59.7273745
   8.8969548  40.0794620  59.7838936   8.7201187  41.5565109  60.0648526
   8.2940140  31.8495696  60.9574413   7.5562897  31.3373083  61.2884655
   8.5466914  31.4096078  60.1457690   7.7940160  42.7580207  60.6623564
   8.0863134  43.3185264  59.9435929   8.3038780  43.0508768  61.4176723
   8.3951768  24.6271948  61.5516182   8.7010644  23.7669312  61.2642097
   9.1204372  25.2189569  61.3515176   2.6672847  34.9225742  62.0592373
   2.7221457  33.9699578  61.9834850   1.8564049  35.0785181  62.5433672
   3.8164041  38.8505865  53.2970656   3.3783471  38.1341724  52.8376294
   4.5574482  39.0781979  52.7355748   2.7573785  43.5360558  61.7517017
   2.7149964  43.7621405  60.8225549   3.6736484  43.3023933  61.9002818
  11.9337156  37.1263062  59.3546975  11.7955054  37.3164658  58.4268164
  11.5773375  37.8882444  59.8115026  11.9606535  39.1939589  64.3658247
  12.3943042  39.1014878  65.2141301  12.6738116  39.1697089  63.7278263
  12.8222085  39.2363289  66.8991132  13.0157975  40.1409100  67.1450407
  12.7222703  38.7770708  67.7329717   4.6522530  36.9601945  67.4578279
   5.5814590  37.1113104  67.2847246   4.2313560  37.0485966  66.6026925
   4.0459014  46.0861706  56.5702353   4.2210770  45.6149749  57.3847976
   3.3591802  46.7127472  56.7983614   5.0016077  40.3634212  62.6165654
   4.6665910  40.3234982  63.5123304   4.5020023  39.6978928  62.1436065
   7.9375269  37.7090246  52.8902714   7.3204439  36.9837074  52.7935767
   7.4691757  38.4699607  52.5469788   9.5946808  40.3828739  68.7822474
   8.7073586  40.0454660  68.9048873  10.1645359  39.6511770  69.0191239
   2.9137741  44.2801961  59.2586539   2.1305262  44.8223641  59.3524763
   3.6130486  44.7975941  59.6580780   6.2234391  30.0896590  61.9020744
   6.7203090  29.3366553  61.5821814   5.4521372  30.1260907  61.3363954
  14.0764148  35.7936956  63.5439036  14.0654024  36.6761671  63.1732969
  13.2081528  35.4408507  63.3493573   7.3064171  38.8468278  59.4759168
   6.3720450  38.9669740  59.3063872   7.4840840  37.9440744  59.2119177
   2.8069359  32.2313973  61.6292429   2.4367147  31.6785014  62.3173334
   3.3028452  31.6272107  61.0767429  10.6936723  34.6885597  60.0109202
  11.1597175  35.5213588  59.9369504  11.1444223  34.2230578  60.7154460
   8.7612954  41.0329418  57.0095354   9.0372798  40.9186013  57.9189228
   7.8917453  40.6346903  56.9707527   8.4359844  35.2456076  66.5499997
   7.7831294  35.4931983  65.8952450   8.8140224  34.4320214  66.2162474
   5.3967018  45.2815769  60.6528167   5.5789412  44.4637425  61.1155920
   6.2200004  45.4983461  60.2153057   5.7309183  44.2083954  57.9143216
   6.2596950  43.6976409  57.3013378   5.9937403  43.8926484  58.7788749
   6.3638587  45.2424790  64.2587332   6.2389727  44.4414530  63.7498278
   7.0217678  45.7370983  63.7701302   8.4273496  43.0433810  65.8866882
   7.4803831  42.9239161  65.8145209   8.7756269  42.1556308  65.9693144
   5.4319929  42.8386526  62.0871235   5.2844891  41.9103234  62.2678805
   6.2573422  42.8606617  61.6028310   9.0354051  43.6615085  63.1736107
   9.9600598  43.4557946  63.0360559   8.8669354  43.4131486  64.0825449
   1.2850320  29.9879215  56.1445020   2.0058683  30.3660468  55.6408736
   0.6615624  30.7068092  56.2479998   5.4281443  30.6924364  57.0803352
   5.6445058  31.5749002  56.7792180   4.9475510  30.3010577  56.3508994
   8.8249367  44.1800752  58.5298199   8.9986244  43.6147175  57.7772051
   9.3178258  44.9801647  58.3477689   1.4313943  29.5227005  58.9742556
   1.5529855  28.5943651  59.1733444   1.1415986  29.5365691  58.0620872
  14.6788758  36.9437175  60.1488499  15.1219904  36.1944500  59.7507622
  13.8015268  36.9347312  59.7662231   9.8124539  43.4967517  55.6295097
  10.5075444  44.1174209  55.8482412  10.1547690  42.6462868  55.9047475
  11.7115963  40.9467222  57.1582428  12.2367287  41.2854495  56.4331748
  11.6238315  40.0114238  56.9745563  11.5207744  38.4292592  69.7766354
  11.5705749  38.2642600  70.7181877  11.4121667  37.5619851  69.3864235
  13.0225940  40.8489534  70.0208376  12.7310749  41.2119514  70.8571837
  12.4098072  40.1356542  69.8421708  14.2221623  38.4142414  62.5410946
  15.0568514  38.8532218  62.7048507  14.3580752  37.9381067  61.7219192
  11.2713129  35.9722148  68.4888434  11.7467250  36.1649795  67.6807285
  10.3478694  36.0281334  68.2431818   3.9039408  43.6029268  54.5370191
   3.3313375  44.2219456  54.0840663   4.4772202  44.1528630  55.0710113
   7.1236668  43.8866419  55.6678773   8.0567341  43.8211980  55.8711649
   7.0359880  44.7222685  55.2093306   9.7524684  43.2032289  52.6282721
   9.6738316  42.8692153  53.5218478  10.5734351  43.6954057  52.6274193
  12.4502875  36.0694028  65.8359039  12.4179196  35.1310029  66.0218723
  13.0603499  36.1478065  65.1024864   4.2886206  34.9390081  51.8786243
   5.2345311  34.8096289  51.9474661   3.9100451  34.2004743  52.3555671
  12.5997364  32.8605072  65.8817322  12.0836413  32.0763528  65.6947251
  13.4837312  32.5323788  66.0463842  10.2608091  26.6046087  61.8413135
  10.0632912  26.2961175  62.7256467  10.8707796  27.3307726  61.9711065
  18.2679425  37.1310035  64.9765076  18.9982814  36.8695323  65.5372779
  17.6586371  36.3938757  65.0167144  16.3494722  35.2717898  65.5739527
  15.6227886  35.1373863  64.9656019  15.9342009  35.5794726  66.3796245
   2.4729124  32.8640058  51.8141128   1.5660579  32.5673170  51.8903842
   2.7505105  32.5669876  50.9475415   4.0891189  27.4076947  57.9685370
   3.2791918  27.0624032  58.3440616   4.7775606  27.0984491  58.5572981
   6.0181738  26.4854994  59.5909666   6.5712776  26.9050448  60.2499689
   6.2551824  25.5590742  59.6332622   1.2427908  29.7226993  51.9553108
   2.1047072  30.0481891  52.2148925   1.4278252  28.9358489  51.4426173
   9.3960545  28.5955519  59.0988331   8.8159214  29.2540323  58.7166383
   9.1296477  27.7732864  58.6875748   7.8464111  27.9960577  61.3009651
   8.3463889  28.1077111  60.4923970   8.4899719  27.6921630  61.9410459
   8.1785423  30.7555610  58.1544679   7.2911278  31.0405260  57.9364874
   8.5939412  30.5949373  57.3071956  11.5299959  30.7802131  61.8699018
  12.3060349  31.2698583  62.1423635  10.8048093  31.2060185  62.3270888
  13.9672517  31.4929750  62.9272959  14.5617008  31.2525486  62.2166267
  14.0399101  30.7736880  63.5546495   7.3228636  40.5200284  52.2492699
   8.0264486  40.7250287  52.8650355   6.5991285  41.0877046  52.5141782
   8.1526446  36.2710146  58.3694969   8.0961648  36.7278697  57.5302601
   8.7054789  35.5100830  58.1917812  11.9631252  32.0599877  59.1945089
  11.7068187  31.6596513  60.0253296  11.3384120  32.7743671  59.0695228
  16.2743590  34.7995951  61.7016380  15.7143148  34.8689140  62.4747942
  15.6687093  34.6236935  60.9815876   9.2315333  40.9582814  54.2991159
  10.0660937  40.5264012  54.1168634   9.0699676  40.7864827  55.2268053
   8.8861226  37.4614927  55.6647498   8.8310029  37.2959198  54.7235942
   8.2607281  38.1690960  55.8209688   2.1957351  26.9623036  55.2432817
   2.1836021  27.9064876  55.4001088   3.0880773  26.7793181  54.9492278
   6.0109471  23.5565812  59.4978753   5.2441866  23.0024299  59.6435436
   6.4220176  23.6287681  60.3592905  17.8599609  51.4752465  64.3946336
  18.4978019  51.3559212  63.6909676  17.7420451  52.4233309  64.4534288
  14.6689315  51.4279893  64.3307860  14.3307826  51.3120957  63.4428395
  15.5379083  51.0271058  64.3108867  10.5276131  53.2815369  60.3204751
   9.9640996  53.1905306  59.5521039  10.4128526  52.4615274  60.8007244
  16.1075689  56.9486337  55.6319216  15.4563669  57.5340417  55.2453230
  16.9020052  57.4792532  55.6914254  10.0331316  54.0375474  56.0306351
  10.8062192  53.4904461  55.8919226  10.3856715  54.9019723  56.2420812
  12.7972566  52.7428705  65.8274610  13.3936138  52.5184727  65.1131572
  12.8547537  52.0013450  66.4300057  12.3697594  50.1968140  53.6624801
  12.6223115  49.6749661  52.9008264  11.4322153  50.0334286  53.7651484
  17.4140877  49.2003918  61.4699544  18.2003966  48.7823342  61.1189961
  17.6779581  50.1050011  61.6381192  17.5850954  54.6376769  56.1688201
  16.9496787  54.7111395  56.8809105  17.2548361  55.2270368  55.4907280
  22.8149304  49.1379152  62.3732522  23.5474476  48.5678368  62.6070352
  22.0588660  48.7500752  62.8139028  12.0893883  52.0996246  55.8649175
  11.9730141  51.4241149  56.5330260  12.1996143  51.6128620  55.0481329
  14.4325424  51.5606393  59.5695865  14.0683631  51.0337014  60.2808786
  15.2892540  51.1704862  59.3962350  20.3374725  42.8500726  66.8327131
  20.0058049  43.7196137  66.6088346  19.7420338  42.5337010  67.5121161
  14.0730911  46.5896293  54.5657213  14.2405313  47.4576529  54.9327684
  13.8828080  46.7523575  53.6418502  16.8306244  55.0513272  66.2323044
  16.5306967  55.9538311  66.1238851  16.4857304  54.7845455  67.0844196
  10.2818726  51.5027069  62.2659748   9.3569222  51.3703283  62.4737440
  10.5303139  52.2821288  62.7629690  20.2303388  47.5695812  63.9120481
  19.3220265  47.5011220  63.6179242  20.1790984  48.0467757  64.7402306
  14.0520132  49.0453950  55.5503880  13.9319757  49.4911001  56.3889360
  13.3572720  49.3939268  54.9917418  11.8127024  61.8157592  59.1994011
  11.7351054  62.7665417  59.2782492  11.2088667  61.4703465  59.8568938
  22.0965034  45.7712250  65.6898355  21.4539415  46.0644784  65.0438149
  21.5919963  45.6565171  66.4951551  19.7505198  49.5175424  56.3784214
  20.6623054  49.7502810  56.2031912  19.2414845  50.1012468  55.8159293
  14.3877036  48.8772658  67.3879064  15.2338231  49.3012072  67.5313713
  14.3275673  48.2206282  68.0817627  18.3574780  54.5001242  63.7697796
  17.7283643  54.6646956  63.0673863  17.9700442  54.9142852  64.5408760
  22.2364012  55.4355680  61.1242159  21.5515050  55.8154581  60.5739193
  22.3207861  56.0451007  61.8574107  17.5376481  46.5377027  69.0460237
  17.2937413  47.2919087  68.5094513  17.8136411  46.9162374  69.8807484
  19.4914944  53.0815639  67.7237503  19.7031839  53.7247399  67.0471884
  19.4444692  52.2477955  67.2559433  17.0941173  45.6933460  64.6274075
  16.2325652  45.9914713  64.9190813  17.1203607  45.9103858  63.6955108
  13.9102742  54.2375650  61.0347881  14.3741088  54.5163353  60.2452503
  13.6459540  53.3359095  60.8520971  10.8026823  53.7847132  63.9727644
  11.3728180  54.2134400  63.3345128  11.3934935  53.5029716  64.6711830
  12.8471628  50.3598802  57.8437446  13.5495672  50.8119846  58.3111372
  12.5152257  49.7182621  58.4717339   6.5896962  48.6182355  63.1454579
   5.7996016  48.8739884  62.6694690   7.0808210  49.4330693  63.2506620
  20.6060772  55.9587594  65.8959860  21.4278215  55.5567782  65.6142542
  20.6023175  55.8555828  66.8475976   8.5411708  48.9826934  60.1038056
   7.7442871  49.0945629  60.6221552   8.3137300  49.3213587  59.2378947
  28.6966765  52.3026343  62.2444832  27.9430473  51.7333741  62.0888836
  28.8314306  52.2689007  63.1915466  14.0865393  57.1739745  57.9199551
  13.9511068  58.0191281  58.3484399  14.6275205  57.3759023  57.1565485
   7.5394790  54.6915183  58.4927476   8.0519311  55.4858433  58.6433041
   8.1917503  53.9941474  58.4261078  17.4357856  40.6970307  66.4498444
  17.0922126  41.5871949  66.3737555  17.8036819  40.5071965  65.5868029
  17.4008139  50.6878918  54.9570880  16.8854763  51.4583523  55.1959267
  17.1285448  50.0144054  55.5803941  14.9855250  45.5328619  60.0156118
  14.1296846  45.1435469  59.8361757  15.3982202  45.6120580  59.1555903
  16.5154397  43.0674962  64.4147678  16.0119192  43.0305097  63.6015483
  16.8085004  43.9767705  64.4744334  12.7597283  43.1513692  63.4213859
  13.6250279  42.9556501  63.0619749  12.8274792  42.9224044  64.3483216
  22.3742413  53.4411273  56.8924053  21.5971856  53.1022432  56.4479215
  23.0533894  53.4463896  56.2179018  17.1894442  48.5606010  56.7830661
  16.8844578  48.8752159  57.6340804  18.1424884  48.6387430  56.8257994
  15.6340874  54.7196233  58.4323615  15.1062236  53.9848993  58.1196852
  15.1328377  55.4970910  58.1863583  20.6133720  52.9145254  63.5490661
  19.9557395  53.6044515  63.6370790  21.4174119  53.3041686  63.8924647
  10.3659602  45.3815900  60.7930226  10.9403354  45.1591081  60.0603419
  10.9530584  45.4504594  61.5458828  19.4239179  51.2689627  61.5994603
  19.9371061  51.9019618  62.1016313  20.0740403  50.6690822  61.2337963
  10.6929189  47.4120361  54.8126112   9.8566501  47.7495047  55.1335386
  10.5533958  47.2769341  53.8753249  12.6682269  42.2557149  59.5205296
  12.0146682  41.9406166  58.8961910  12.6262744  41.6332889  60.2465119
  13.7793474  52.5376444  51.4358588  12.8720536  52.3065697  51.6349737
  14.2764506  51.7414063  51.6232569  16.6861553  61.2473951  54.3555274
  16.0123252  61.5505648  54.9640232  17.0727375  62.0503031  54.0060731
  15.9020010  48.7439082  63.8452943  14.9842571  48.9654029  63.6874631
  16.3180153  48.8185393  62.9864651  16.6855058  50.1430498  58.9755624
  17.4326876  50.6551895  58.6662746  16.9546647  49.8214551  59.8360017
  14.9581708  52.6389039  55.9582578  14.0492927  52.3548071  56.0555048
  14.9876792  53.0588117  55.0985885  20.1900975  56.2495628  59.7273745
  19.7363302  55.4086538  59.7838936  19.5594942  56.8857026  60.0648526
  19.1333895  47.1787614  60.9574413  18.3956651  46.6665000  61.2884655
  19.3860668  46.7387996  60.1457690  18.6333914  58.0872125  60.6623564
  18.9256889  58.6477182  59.9435929  19.1432535  58.3800686  61.4176723
  19.2345522  39.9563866  61.5516182  19.5404399  39.0961230  61.2642097
  19.9598127  40.5481486  61.3515176   5.5269878  50.3594553  59.9397780
   5.3294278  49.7663913  59.2148847   4.9716542  50.0546763  60.6573719
  13.5066602  50.2517659  62.0592373  13.5615212  49.2991496  61.9834850
  12.6957804  50.4077098  62.5433672  14.6557796  54.1797782  53.2970656
  14.2177225  53.4633641  52.8376294  15.3968236  54.4073897  52.7355748
  11.4458962  48.8694719  59.8182752  10.6326827  49.1688890  60.2247944
  11.9417956  48.4750408  60.5357234  13.5967540  58.8652476  61.7517017
  13.5543718  59.0913322  60.8225549  14.5130238  58.6315850  61.9002818
  17.0433173  49.3336543  68.6497646  17.3982561  49.5608017  69.5092112
  17.6905305  49.6654920  68.0274901  22.7730910  52.4554979  59.3546975
  22.6348809  52.6456575  58.4268164  22.4167129  53.2174362  59.8115026
  10.9373036  46.4413074  65.4343987  11.5772416  46.3001834  64.7366950
  10.1050567  46.1547588  65.0582589  22.8000290  54.5231506  64.3658247
  23.2336797  54.4306795  65.2141301  23.5131871  54.4989007  63.7278263
  11.7133340  55.7415505  61.5478979  12.5073939  55.2465825  61.3461554
  11.0025033  55.2133368  61.1846685   8.0216104  49.8858587  57.6238732
   7.0913692  49.8243042  57.8408694   8.1173576  49.3634539  56.8275373
   7.9401653  46.4113399  60.2116974   8.2008470  47.3258733  60.1026134
   8.7618825  45.9437842  60.3613587  23.6615839  54.5655207  66.8991132
  23.8551730  55.4701017  67.1450407  23.5616458  54.1062626  67.7329717
  15.3152150  44.4513098  69.3981459  14.6680065  45.1503047  69.3045936
  16.0853166  44.8849241  69.7657707  15.4916285  52.2893862  67.4578279
  16.4208345  52.4405022  67.2847246  15.0707315  52.3777883  66.6026925
  14.8852768  61.4153623  56.5702353  15.0604524  60.9441667  57.3847976
  14.1985556  62.0419390  56.7983614  15.8409831  55.6926130  62.6165654
  15.5059664  55.6526900  63.5123304  15.3413777  55.0270846  62.1436065
  18.7769023  53.0382164  52.8902714  18.1598194  52.3128992  52.7935767
  18.3085512  53.7991524  52.5469788  10.5667569  47.2567588  52.0124018
   9.6897035  47.1356389  51.6486265  11.0425322  46.4653667  51.7602907
  20.4340562  55.7120656  68.7822474  19.5467341  55.3746578  68.9048873
  21.0039113  54.9803687  69.0191239  13.7531495  59.6093879  59.2586539
  12.9699017  60.1515559  59.3524763  14.4524240  60.1267858  59.6580780
  17.0628145  45.4188508  61.9020744  17.5596845  44.6658470  61.5821814
  16.2915127  45.4552825  61.3363954  24.9157903  51.1228874  63.5439036
  24.9047779  52.0053589  63.1732969  24.0475282  50.7700424  63.3493573
  18.1457926  54.1760195  59.4759168  17.2114205  54.2961658  59.3063872
  18.3234594  53.2732662  59.2119177  13.6463114  47.5605891  61.6292429
  13.2760901  47.0076931  62.3173334  14.1422206  46.9564025  61.0767429
  21.5330477  50.0177515  60.0109202  21.9990929  50.8505506  59.9369504
  21.9837978  49.5522496  60.7154460  19.6006708  56.3621336  57.0095354
  19.8766552  56.2477930  57.9189228  18.7311207  55.9638821  56.9707527
  19.5047140  42.3858102  64.0500103  18.5910220  42.6162328  64.2182310
  19.9340241  42.4696546  64.9014135  19.2753598  50.5747994  66.5499997
  18.6225049  50.8223901  65.8952450  19.6533978  49.7612132  66.2162474
  16.2360772  60.6107687  60.6528167  16.4183167  59.7929343  61.1155920
  17.0593758  60.8275379  60.2153057  16.5702938  59.5375872  57.9143216
  17.0990704  59.0268326  57.3013378  16.8331157  59.2218402  58.7788749
   5.2946263  48.8509443  57.4536924   5.5899704  47.9420122  57.4003978
   4.3934299  48.8297183  57.1317926  17.2032342  60.5716708  64.2587332
  17.0783481  59.7706447  63.7498278  17.8611433  61.0662901  63.7701302
   8.8240510  46.9265440  63.4364473   8.1027096  47.5401408  63.2971946
   9.6133766  47.4623205  63.3581119  19.2667250  58.3725728  65.8866882
  18.3197586  58.2531079  65.8145209  19.6150023  57.4848226  65.9693144
  11.6266823  44.2619867  69.7105124  12.1501225  44.5082163  70.4731434
  11.4079157  45.0939901  69.2908262   7.0234104  46.5323541  57.5776249
   6.6946811  45.6520920  57.3951355   7.3773475  46.4771210  58.4652638
  16.2713683  58.1678444  62.0871235  16.1238646  57.2395151  62.2678805
  17.0967177  58.1898535  61.6028310  10.1375928  46.8196511  57.9451727
  10.4772000  47.3482432  57.2230335  10.5848048  47.1576917  58.7210293
  19.8747805  58.9907003  63.1736107  20.7994353  58.7849864  63.0360559
  19.7063109  58.7423404  64.0825449  12.8319368  45.2033562  67.3954795
  12.4916189  44.4041375  67.7975475  12.1258375  45.5035272  66.8231628
  13.4835840  42.2882874  65.8482118  14.3061910  41.8143352  65.7261008
  13.7273904  43.0673358  66.3480804  12.1244075  45.3171133  56.1445020
  12.8452437  45.6952385  55.6408736  11.5009379  46.0360009  56.2479998
  16.2675198  46.0216281  57.0803352  16.4838812  46.9040919  56.7792180
  15.7869265  45.6302495  56.3508994  11.0074419  48.9801995  63.6574096
  10.8619000  49.2942298  64.5498378  10.5299623  49.5986895  63.1044995
  12.8670802  45.9704543  63.7054986  12.8532371  45.0745636  63.3687284
  13.5843230  45.9775206  64.3393272  14.7196933  46.4041883  65.7508113
  14.4614710  47.3258954  65.7492444  14.1881973  46.0072317  66.4408578
  19.6643121  59.5092670  58.5298199  19.8379999  58.9439093  57.7772051
  20.1572013  60.3093565  58.3477689  12.2707698  44.8518923  58.9742556
  12.3923609  43.9235569  59.1733444  11.9809740  44.8657609  58.0620872
  15.1398888  42.5373833  62.1109276  15.1620585  42.6013167  61.1561256
  15.5566947  41.6978342  62.3049782  25.5182513  52.2729093  60.1488499
  25.9613659  51.5236418  59.7507622  24.6409023  52.2639229  59.7662231
  20.6518294  58.8259434  55.6295097  21.3469199  59.4466127  55.8482412
  20.9941444  57.9754786  55.9047475  22.5509717  56.2759140  57.1582428
  23.0761041  56.6146413  56.4331748  22.4632070  55.3406155  56.9745563
  22.3601498  53.7584510  69.7766354  22.4099503  53.5934517  70.7181877
  22.2515421  52.8911769  69.3864235  11.2437757  56.4373056  57.0658443
  11.3925877  57.1208520  56.4125116  12.0504200  56.4178146  57.5807899
  19.6505261  49.7415438  71.0925661  20.5515123  49.6021903  70.8009659
  19.7253235  49.9069893  72.0323839  23.8619695  56.1781451  70.0208376
  23.5704503  56.5411432  70.8571837  23.2491826  55.4648460  69.8421708
  25.0615377  53.7434331  62.5410946  25.8962269  54.1824135  62.7048507
  25.1974506  53.2672984  61.7219192  22.1106883  51.3014066  68.4888434
  22.5861005  51.4941712  67.6807285  21.1872449  51.3573252  68.2431818
   8.9990390  52.4638233  58.0719512   8.7536432  51.5600563  58.2699722
   9.1686304  52.4655384  57.1298990  16.6887100  43.3361910  67.4544268
  17.2069044  44.0722937  67.1290756  16.3342232  43.6425903  68.2891027
   8.2686037  48.1966591  55.5705674   7.5755282  48.2710946  54.9145710
   8.0237789  47.4326935  56.0927191  16.9399694  39.7562192  62.9745164
  17.2201448  39.0885381  63.6005591  17.7250301  39.9491288  62.4619828
  14.7433162  58.9321186  54.5370191  14.1707129  59.5511373  54.0840663
  15.3165956  59.4820548  55.0710113  20.8108552  48.1779826  66.7216740
  21.7625975  48.2777924  66.7428964  20.6412003  47.3858095  67.2314824
  18.8322932  45.2635409  66.9076140  18.2372864  45.5440422  66.2122629
  18.5472628  45.7529310  67.6792882  17.9630422  59.2158336  55.6678773
  18.8961095  59.1503898  55.8711649  17.8753635  60.0514603  55.2093306
  20.5918439  58.5324207  52.6282721  20.5132070  58.1984070  53.5218478
  21.4128106  59.0245975  52.6274193  23.2896630  51.3985946  65.8359039
  23.2572950  50.4601947  66.0218723  23.8997254  51.4769983  65.1024864
  15.1279961  50.2681999  51.8786243  16.0739066  50.1388207  51.9474661
  14.7494206  49.5296661  52.3555671  23.4391118  48.1896989  65.8817322
  22.9230167  47.4055446  65.6947251  24.3231067  47.8615706  66.0463842
  21.1001845  41.9338005  61.8413135  20.9026667  41.6253093  62.7256467
  21.7101551  42.6599644  61.9711065  29.1073180  52.4601953  64.9765076
  29.8376568  52.1987241  65.5372779  28.4980125  51.7230675  65.0167144
  27.1888477  50.6009815  65.5739527  26.4621641  50.4665780  64.9656019
  26.7735764  50.9086644  66.3796245  13.3122878  48.1931975  51.8141128
  12.4054333  47.8965088  51.8903842  13.5898859  47.8961793  50.9475415
  14.9284944  42.7368865  57.9685370  14.1185672  42.3915950  58.3440616
  15.6169361  42.4276409  58.5572981  16.8575492  41.8146912  59.5909666
  17.4106531  42.2342365  60.2499689  17.0945578  40.8882660  59.6332622
  12.0821663  45.0518910  51.9553108  12.9440827  45.3773809  52.2148925
  12.2672007  44.2650406  51.4426173  20.2354299  43.9247437  59.0988331
  19.6552968  44.5832241  58.7166383  19.9690232  43.1024782  58.6875748
  18.6857865  43.3252495  61.3009651  19.1857644  43.4369029  60.4923970
  19.3293473  43.0213547  61.9410459  19.0179177  46.0847527  58.1544679
  18.1305032  46.3697178  57.9364874  19.4333166  45.9241291  57.3071956
  22.3693713  46.1094048  61.8699018  23.1454103  46.5990501  62.1423635
  21.6441847  46.5352102  62.3270888  24.8066272  46.8221668  62.9272959
  25.4010763  46.5817403  62.2166267  24.8792856  46.1028798  63.5546495
  18.1622391  55.8492202  52.2492699  18.8658241  56.0542204  52.8650355
  17.4385039  56.4168964  52.5141782  18.9920201  51.6002063  58.3694969
  18.9355402  52.0570615  57.5302601  19.5448543  50.8392748  58.1917812
  22.8025007  47.3891795  59.1945089  22.5461941  46.9888431  60.0253296
  22.1777875  48.1035589  59.0695228  27.1137345  50.1287868  61.7016380
  26.5536903  50.1981058  62.4747942  26.5080848  49.9528853  60.9815876
  20.0709088  56.2874731  54.2991159  20.9054692  55.8555930  54.1168634
  19.9093431  56.1156745  55.2268053  19.7254980  52.7906845  55.6647498
  19.6703784  52.6251116  54.7235942  19.1001035  53.4982877  55.8209688
  13.0351106  42.2914954  55.2432817  13.0229775  43.2356793  55.4001088
  13.9274527  42.1085099  54.9492278  16.8503225  38.8857730  59.4978753
  16.0835621  38.3316217  59.6435436  17.2613930  38.9579599  60.3592905
  28.6993363  66.8044382  64.3946336  29.3371773  66.6851130  63.6909676
  28.5814206  67.7525226  64.4534288  25.5083069  66.7571810  64.3307860
  25.1701581  66.6412875  63.4428395  26.3772838  66.3562975  64.3108867
  21.3669885  68.6107287  60.3204751  20.8034750  68.5197224  59.5521039
  21.2522280  67.7907191  60.8007244  23.6366320  68.0720622  65.8274610
  24.2329893  67.8476645  65.1131572  23.6941292  67.3305368  66.4300057
  23.2091349  65.5260058  53.6624801  23.4616869  65.0041579  52.9008264
  22.2715908  65.3626203  53.7651484  28.2534632  64.5295836  61.4699544
  29.0397721  64.1115259  61.1189961  28.5173336  65.4341928  61.6381192
  28.4244709  69.9668686  56.1688201  27.7890542  70.0403313  56.8809105
  28.0942115  70.5562285  55.4907280  33.6543059  64.4671069  62.3732522
  34.3868231  63.8970286  62.6070352  32.8982414  64.0792670  62.8139028
  22.9287637  67.4288164  55.8649175  22.8123896  66.7533067  56.5330260
  23.0389897  66.9420538  55.0481329  25.2719178  66.8898311  59.5695865
  24.9077386  66.3628932  60.2808786  26.1286294  66.4996780  59.3962350
  31.1768479  58.1792643  66.8327131  30.8451804  59.0488054  66.6088346
  30.5814092  57.8628927  67.5121161  24.9124665  61.9188211  54.5657213
  25.0799068  62.7868447  54.9327684  24.7221834  62.0815492  53.6418502
  21.1212480  66.8318986  62.2659748  20.1962977  66.6995200  62.4737440
  21.3696893  67.6113206  62.7629690  31.0697142  62.8987730  63.9120481
  30.1614020  62.8303138  63.6179242  31.0184738  63.3759675  64.7402306
  24.8913886  64.3745868  55.5503880  24.7713511  64.8202919  56.3889360
  24.1966475  64.7231186  54.9917418  32.9358789  61.1004168  65.6898355
  32.2933169  61.3936701  65.0438149  32.4313717  60.9857088  66.4951551
  30.5898952  64.8467341  56.3784214  31.5016809  65.0794728  56.2031912
  30.0808599  65.4304385  55.8159293  25.2270790  64.2064576  67.3879064
  26.0731985  64.6303989  67.5313713  25.1669428  63.5498200  68.0817627
  27.9334927  61.0225377  64.6274075  27.0719406  61.3206631  64.9190813
  27.9597362  61.2395776  63.6955108  24.7496497  69.5667568  61.0347881
  25.2134842  69.8455271  60.2452503  24.4853295  68.6651012  60.8520971
  23.6865383  65.6890720  57.8437446  24.3889426  66.1411764  58.3111372
  23.3546011  65.0474539  58.4717339  17.4290717  63.9474273  63.1454579
  16.6389771  64.2031801  62.6694690  17.9201964  64.7622611  63.2506620
  19.3805462  64.3118852  60.1038056  18.5836625  64.4237546  60.6221552
  19.1531054  64.6505504  59.2378947  28.2751611  56.0262225  66.4498444
  27.9315880  56.9163866  66.3737555  28.6430573  55.8363882  65.5868029
  28.2401894  66.0170836  54.9570880  27.7248517  66.7875440  55.1959267
  27.9679202  65.3435972  55.5803941  25.8249005  60.8620537  60.0156118
  24.9690601  60.4727387  59.8361757  26.2375956  60.9412497  59.1555903
  27.3548151  58.3966880  64.4147678  26.8512947  58.3597015  63.6015483
  27.6478758  59.3059623  64.4744334  23.5991037  58.4805610  63.4213859
  24.4644034  58.2848418  63.0619749  23.6668546  58.2515961  64.3483216
  33.2136168  68.7703190  56.8924053  32.4365610  68.4314350  56.4479215
  33.8927649  68.7755814  56.2179018  28.0288197  63.8897928  56.7830661
  27.7238332  64.2044077  57.6340804  28.9818639  63.9679348  56.8257994
  21.2053356  60.7107817  60.7930226  21.7797108  60.4882999  60.0603419
  21.7924339  60.7796512  61.5458828  30.2632933  66.5981544  61.5994603
  30.7764815  67.2311536  62.1016313  30.9134157  65.9982740  61.2337963
  21.5322943  62.7412278  54.8126112  20.6960256  63.0786965  55.1335386
  21.3927713  62.6061258  53.8753249  23.5076024  57.5849066  59.5205296
  22.8540436  57.2698084  58.8961910  23.4656498  56.9624807  60.2465119
  24.6187229  67.8668361  51.4358588  23.7114291  67.6357615  51.6349737
  25.1158261  67.0705981  51.6232569  26.7413764  64.0731000  63.8452943
  25.8236326  64.2945947  63.6874631  27.1573908  64.1477310  62.9864651
  27.5248812  65.4722416  58.9755624  28.2720631  65.9843813  58.6662746
  27.7940402  65.1506468  59.8360017  25.7975462  67.9680956  55.9582578
  24.8886681  67.6839989  56.0555048  25.8270546  68.3880035  55.0985885
  31.0294730  71.5787546  59.7273745  30.5757057  70.7378456  59.7838936
  30.3988696  72.2148944  60.0648526  29.9727649  62.5079532  60.9574413
  29.2350406  61.9956918  61.2884655  30.2254423  62.0679913  60.1457690
  30.0739277  55.2855784  61.5516182  30.3798153  54.4253147  61.2642097
  30.7991881  55.8773404  61.3515176  16.3663633  65.6886470  59.9397780
  16.1688032  65.0955831  59.2148847  15.8110297  65.3838681  60.6573719
  24.3460356  65.5809577  62.0592373  24.4008966  64.6283413  61.9834850
  23.5351558  65.7369016  62.5433672  25.4951550  69.5089700  53.2970656
  25.0570980  68.7925559  52.8376294  26.2361991  69.7365815  52.7355748
  22.2852716  64.1986637  59.8182752  21.4720582  64.4980807  60.2247944
  22.7811710  63.8042325  60.5357234  33.6124665  67.7846897  59.3546975
  33.4742563  67.9748493  58.4268164  33.2560884  68.5466280  59.8115026
  21.7766791  61.7704992  65.4343987  22.4166170  61.6293751  64.7366950
  20.9444321  61.4839506  65.0582589  18.8609858  65.2150504  57.6238732
  17.9307446  65.1534960  57.8408694  18.9567330  64.6926457  56.8275373
  18.7795407  61.7405317  60.2116974  19.0402225  62.6550650  60.1026134
  19.6012580  61.2729760  60.3613587  26.1545905  59.7805015  69.3981459
  25.5073820  60.4794965  69.3045936  26.9246920  60.2141159  69.7657707
  29.6162778  68.3674082  52.8902714  28.9991948  67.6420910  52.7935767
  29.1479266  69.1283442  52.5469788  21.4061324  62.5859506  52.0124018
  20.5290790  62.4648307  51.6486265  21.8819077  61.7945584  51.7602907
  27.9021900  60.7480426  61.9020744  28.3990599  59.9950388  61.5821814
  27.1308881  60.7844742  61.3363954  28.9851680  69.5052113  59.4759168
  28.0507959  69.6253575  59.3063872  29.1628349  68.6024580  59.2119177
  24.4856868  62.8897809  61.6292429  24.1154656  62.3368849  62.3173334
  24.9815961  62.2855942  61.0767429  32.3724232  65.3469432  60.0109202
  32.8384684  66.1797424  59.9369504  32.8231732  64.8814414  60.7154460
  30.4400463  71.6913254  57.0095354  30.7160307  71.5769848  57.9189228
  29.5704962  71.2930738  56.9707527  30.3440894  57.7150019  64.0500103
  29.4303974  57.9454246  64.2182310  30.7733996  57.7988463  64.9014135
  16.1340017  64.1801361  57.4536924  16.4293458  63.2712040  57.4003978
  15.2328053  64.1589101  57.1317926  19.6634264  62.2557358  63.4364473
  18.9420850  62.8693325  63.2971946  20.4527520  62.7915123  63.3581119
  22.4660578  59.5911784  69.7105124  22.9894980  59.8374081  70.4731434
  22.2472911  60.4231819  69.2908262  17.8627859  61.8615459  57.5776249
  17.5340565  60.9812838  57.3951355  18.2167230  61.8063128  58.4652638
  20.9769682  62.1488429  57.9451727  21.3165755  62.6774350  57.2230335
  21.4241803  62.4868835  58.7210293  23.6713123  60.5325479  67.3954795
  23.3309943  59.7333292  67.7975475  22.9652129  60.8327190  66.8231628
  24.3229595  57.6174792  65.8482118  25.1455664  57.1435270  65.7261008
  24.5667658  58.3965276  66.3480804  22.9637829  60.6463050  56.1445020
  23.6846192  61.0244303  55.6408736  22.3403133  61.3651927  56.2479998
  27.1068952  61.3508199  57.0803352  27.3232567  62.2332837  56.7792180
  26.6263019  60.9594413  56.3508994  21.8468174  64.3093912  63.6574096
  21.7012754  64.6234215  64.5498378  21.3693377  64.9278813  63.1044995
  23.7064556  61.2996460  63.7054986  23.6926125  60.4037554  63.3687284
  24.4236985  61.3067124  64.3393272  25.5590687  61.7333801  65.7508113
  25.3008465  62.6550871  65.7492444  25.0275728  61.3364235  66.4408578
  23.1101452  60.1810841  58.9742556  23.2317364  59.2527487  59.1733444
  22.8203495  60.1949527  58.0620872  25.9792643  57.8665751  62.1109276
  26.0014340  57.9305084  61.1561256  26.3960702  57.0270260  62.3049782
  36.3576267  67.6021011  60.1488499  36.8007413  66.8528336  59.7507622
  35.4802777  67.5931147  59.7662231  33.3903471  71.6051058  57.1582428
  33.9154796  71.9438330  56.4331748  33.3025824  70.6698073  56.9745563
  19.8384144  67.7930151  58.0719512  19.5930186  66.8892481  58.2699722
  20.0080059  67.7947301  57.1298990  27.5280854  58.6653827  67.4544268
  28.0462798  59.4014854  67.1290756  27.1735987  58.9717821  68.2891027
  19.1079792  63.5258509  55.5705674  18.4149037  63.6002864  54.9145710
  18.8631544  62.7618852  56.0927191  27.7793448  55.0854110  62.9745164
  28.0595202  54.4177299  63.6005591  28.5644055  55.2783206  62.4619828
  29.6716686  60.5927327  66.9076140  29.0766618  60.8732340  66.2122629
  29.3866383  61.0821228  67.6792882  25.9673715  65.5973917  51.8786243
  26.9132820  65.4680125  51.9474661  25.5887960  64.8588578  52.3555671
  31.9395600  57.2629923  61.8413135  31.7420421  56.9545011  62.7256467
  32.5495305  57.9891561  61.9711065  24.1516632  63.5223893  51.8141128
  23.2448088  63.2257006  51.8903842  24.4292613  63.2253711  50.9475415
  25.7678698  58.0660783  57.9685370  24.9579427  57.7207868  58.3440616
  26.4563115  57.7568326  58.5572981  27.6969246  57.1438829  59.5909666
  28.2500285  57.5634283  60.2499689  27.9339333  56.2174578  59.6332622
  22.9215417  60.3810828  51.9553108  23.7834581  60.7065726  52.2148925
  23.1065761  59.5942324  51.4426173  31.0748054  59.2539355  59.0988331
  30.4946723  59.9124159  58.7166383  30.8083986  58.4316699  58.6875748
  29.5251620  58.6544412  61.3009651  30.0251398  58.7660947  60.4923970
  30.1687228  58.3505465  61.9410459  29.8572932  61.4139445  58.1544679
  28.9698787  61.6989096  57.9364874  30.2726921  61.2533208  57.3071956
  33.2087468  61.4385966  61.8699018  33.9847858  61.9282418  62.1423635
  32.4835602  61.8644020  62.3270888  35.6460026  62.1513585  62.9272959
  36.2404517  61.9109321  62.2166267  35.7186610  61.4320716  63.5546495
  29.8313955  66.9293981  58.3694969  29.7749157  67.3862532  57.5302601
  30.3842298  66.1684666  58.1917812  33.6418761  62.7183713  59.1945089
  33.3855695  62.3180348  60.0253296  33.0171629  63.4327507  59.0695228
  37.9531099  65.4579786  61.7016380  37.3930657  65.5272975  62.4747942
  37.3474602  65.2820771  60.9815876  30.9102842  71.6166649  54.2991159
  31.7448446  71.1847847  54.1168634  30.7487185  71.4448663  55.2268053
  30.5648735  68.1198762  55.6647498  30.5097538  67.9543034  54.7235942
  29.9394790  68.8274795  55.8209688  23.8744860  57.6206871  55.2432817
  23.8623530  58.5648711  55.4001088  24.7668282  57.4377017  54.9492278
  27.6896980  54.2149648  59.4978753  26.9229375  53.6608135  59.6435436
  28.1007685  54.2871517  60.3592905  34.3469778  72.9140984  59.5205296
  33.6934191  72.5990001  58.8961910  34.3050253  72.2916724  60.2465119
  36.6072453  73.3952700  57.9685370  35.7973181  73.0499785  58.3440616
  37.2956870  73.0860244  58.5572981   7.0205855  13.1522670  51.1191642
   7.6584265  13.0329417  50.4154982   6.9026698  14.1003514  51.1779594
   3.8295562  13.1050098  51.0553167   3.4914073  12.9891162  50.1673702
   4.6985330  12.7041263  51.0354173   5.2681936  18.6256542  42.3564523
   4.6169916  19.2110622  41.9698537   6.0626299  19.1562737  42.4159560
   1.9578813  14.4198910  52.5519916   2.5542385  14.1954932  51.8376879
   2.0153784  13.6783655  53.1545364   6.5747124  10.8774123  48.1944850
   7.3610213  10.4593547  47.8435267   6.8385828  11.7820216  48.3626499
   6.7457201  16.3146974  42.8933507   6.1103034  16.3881600  43.6054412
   6.4154608  16.9040573  42.2152586  11.9755551  10.8149357  49.0977829
  12.7080723  10.2448573  49.3315658  11.2194907  10.4270957  49.5384334
   1.2500130  13.7766451  42.5894482   1.1336388  13.1011354  43.2575566
   1.3602390  13.2898825  41.7726635   3.5931671  13.2376598  46.2941171
   3.2289878  12.7107219  47.0054093   4.4498787  12.8475067  46.1207657
   5.9912491  16.7283477  52.9568350   5.6913214  17.6308516  52.8484157
   5.6463550  16.4615660  53.8089503   9.3909635   9.2466017  50.6365788
   8.4826512   9.1781425  50.3424549   9.3397230   9.7237962  51.4647613
   3.2126379  10.7224155  42.2749187   3.0926004  11.1681206  43.1134667
   2.5178967  11.0709473  41.7162725  11.2571281   7.4482455  52.4143661
  10.6145661   7.7414988  51.7683456  10.7526210   7.3335376  53.2196858
   8.9111445  11.1945628  43.1029521   9.8229301  11.4273015  42.9277218
   8.4021092  11.7782673  42.5404599   7.5181027  16.1771447  50.4943102
   6.8889889  16.3417161  49.7919170   7.1306689  16.5913056  51.2654066
  11.3970259  17.1125885  47.8487466  10.7121297  17.4924786  47.2984499
  11.4814108  17.7221211  48.5819414   8.6521191  14.7585844  54.4482809
   8.8638086  15.4017604  53.7717191   8.6050939  13.9248160  53.9804740
   3.0708989  15.9145855  47.7593187   3.5347334  16.1933558  46.9697810
   2.8065787  15.0129300  47.5766278   2.0077875  12.0369007  44.5682752
   2.7101918  12.4890051  45.0356679   1.6758503  11.3952826  45.1962646
   9.7667018  17.6357799  52.6205167  10.5884462  17.2337986  52.3387848
   9.7629421  17.5326033  53.5721283   3.5323622  17.1841843  54.7765877
   3.5968054  17.6462250  55.6124049   2.8234546  16.5539207  54.9048187
  17.8573012  13.9796548  48.9690138  17.1036720  13.4103946  48.8134143
  17.9920553  13.9459212  49.9160773   3.2471640  18.8509950  44.6444858
   3.1117314  19.6961486  45.0729705   3.7881452  19.0529228  43.8810791
   6.9721354  19.7536316  56.8026601   6.9539829  20.5745197  56.3106870
   7.8941274  19.6290392  57.0276742   6.5614386  12.3649123  41.6816186
   6.0461009  13.1353728  41.9204574   6.2891694  11.6914259  42.3049248
  11.5348660  15.1181478  43.6169360  10.7578103  14.7792637  43.1724522
  12.2140141  15.1234101  42.9424325   6.3500689  10.2376215  43.5075967
   6.0450825  10.5522364  44.3586111   7.3031131  10.3157635  43.5503300
   4.7947121  16.3966438  45.1568921   4.2668482  15.6619198  44.8442159
   4.2934624  17.1741115  44.9108890   9.7739967  14.5915459  50.2735968
   9.1163641  15.2814720  50.3616096  10.5780366  14.9811891  50.6169954
   8.5845426  12.9459832  48.3239909   9.0977307  13.5789823  48.8261619
   9.2346650  12.3461027  47.9583269   2.9399721  14.2146649  38.1603894
   2.0326783  13.9835902  38.3595043   3.4370753  13.4184268  38.3477876
   5.8467800  22.9244156  41.0800581   5.1729499  23.2275853  41.6885538
   6.2333622  23.7273236  40.7306038   5.0626257  10.4209287  50.5698250
   4.1448818  10.6424234  50.4119938   5.4786400  10.4955598  49.7109957
   5.8461304  11.8200703  45.7000930   6.5933123  12.3322100  45.3908052
   6.1152894  11.4984756  46.5605324   4.1187954  14.3159244  42.6827885
   3.2099174  14.0318276  42.7800354   4.1483038  14.7358322  41.8231191
   9.3507222  17.9265833  46.4519052   8.8969549  17.0856743  46.5084243
   8.7201189  18.5627231  46.7893832   8.2940141   8.8557819  47.6819720
   7.5562898   8.3435205  48.0129962   8.5466915   8.4158201  46.8702996
   7.7940161  19.7642330  47.3868870   8.0863136  20.3247387  46.6681236
   8.3038782  20.0570891  48.1422029   2.6672849  11.9287864  48.7837680
   2.7221458  10.9761701  48.7080156   1.8564051  12.0847303  49.2678978
   3.8164042  15.8567987  40.0215963   3.3783472  15.1403846  39.5621600
   4.5574483  16.0844102  39.4601054   2.7573786  20.5422681  48.4762323
   2.7149965  20.7683527  47.5470855   3.6736485  20.3086055  48.6248125
  11.9337157  14.1325184  46.0792282  11.7955056  14.3226780  45.1513471
  11.5773376  14.8944567  46.5360333  11.9606537  16.2001711  51.0903553
  12.3943043  16.1077000  51.9386607  12.6738117  16.1759212  50.4523569
   5.6934432  19.8003805  52.6236654   5.7471454  20.3694742  53.3914370
   4.8249213  19.9705690  52.2590691  12.8222086  16.2425412  53.6236439
  13.0157976  17.1471222  53.8695713  12.7222704  15.7832831  54.4575024
   4.6522531  13.9664067  54.1823586   5.5814591  14.1175227  54.0092553
   4.2313561  14.0548088  53.3272232   3.4510863  17.9914732  51.9522123
   3.3121949  17.6233516  52.8248061   2.6625459  18.5062371  51.7806081
   4.0459015  23.0923828  43.2947660   4.2210771  22.6211871  44.1093282
   3.3591803  23.7189594  43.5228920   5.0016078  17.3696335  49.3410961
   4.6665911  17.3297104  50.2368611   4.5020024  16.7041050  48.8681371
   7.9375270  14.7152369  39.6148021   7.3204441  13.9899197  39.5181073
   7.4691758  15.4761729  39.2715095   9.5929402  19.4251277  57.2753801
   9.5341948  18.7410497  56.6084384   9.9948920  20.1670267  56.8234427
   9.5946809  17.3890861  55.5067781   8.7073588  17.0516783  55.6294180
  10.1645360  16.6573892  55.7436546   3.1247962  22.0492313  52.4729024
   3.0518134  22.8547285  52.9848328   2.6825355  22.2484279  51.6477045
   2.9137742  21.2864084  45.9831845   2.1305264  21.8285764  46.0770070
   3.6130487  21.8038063  46.3826087  14.0764149  12.7999078  50.2684342
  14.0654026  13.6823794  49.8978275  13.2081529  12.4470629  50.0738879
   5.5846646  21.9479148  54.6287183   6.2974618  22.5826612  54.5563084
   5.0936674  22.0443014  53.8127184   7.3064173  15.8530400  46.2004474
   6.3720451  15.9731863  46.0309179   7.4840841  14.9502867  45.9364484
  10.6936724  11.6947719  46.7354508  11.1597176  12.5275711  46.6614811
  11.1444225  11.2292701  47.4399767   8.7612955  18.0391541  43.7340660
   9.0372799  17.9248135  44.6434534   7.8917454  17.6409026  43.6952834
   8.4359845  12.2518198  53.2745304   7.7831295  12.4994106  52.6197756
   8.8140225  11.4382337  52.9407781   5.3967019  22.2877892  47.3773474
   5.5789414  21.4699548  47.8401226   6.2200005  22.5045584  46.9398364
   5.7309185  21.2146077  44.6388523   6.2596951  20.7038531  44.0258685
   5.9937404  20.8988607  45.5034056   3.2270201  24.3004937  53.9968957
   3.7788509  24.4636558  54.7618042   3.5676395  24.8909375  53.3248982
   6.3638588  22.2486912  50.9832639   6.2389728  21.4476652  50.4743584
   7.0217680  22.7433106  50.4946609   8.4273497  20.0495933  52.6112189
   7.4803832  19.9301284  52.5390516   8.7756270  19.1618431  52.6938451
   5.4319930  19.8448649  48.8116541   5.2844893  18.9165356  48.9924111
   6.2573424  19.8668739  48.3273617   9.0354052  20.6677207  49.8981414
   9.9600599  20.4620069  49.7605865   8.8669355  20.4193609  50.8070756
   8.8249368  21.1862875  45.2543506   8.9986246  20.6209297  44.5017358
   9.3178259  21.9863770  45.0722995  14.6788759  13.9499298  46.8733805
  15.1219905  13.2006623  46.4752929  13.8015270  13.9409434  46.4907537
   9.8124541  20.5029639  42.3540404  10.5075445  21.1236332  42.5727718
  10.1547691  19.6524991  42.6292782  11.7115964  17.9529345  43.8827735
  12.2367288  18.2916618  43.1577055  11.6238316  17.0176360  43.6990869
   3.3736012  21.8663419  56.0117611   3.6823139  21.6212565  56.8840311
   4.1711494  22.0710057  55.5236481   3.3956625  24.0201328  48.2422988
   2.9561615  23.5277707  48.9355844   4.1464741  23.4774296  48.0015063
  11.4009870  18.5862249  59.1878933  10.6105414  18.5686387  58.6483432
  11.1643224  19.1250542  59.9427969  11.5207745  15.4354715  56.5011661
  11.5705750  15.2704722  57.4427184  11.4121668  14.5681974  56.1109542
  13.0225942  17.8551656  56.7453683  12.7310750  18.2181637  57.5817144
  12.4098073  17.1418665  56.5667015  14.2221624  15.4204536  49.2656253
  15.0568515  15.8594340  49.4293813  14.3580753  14.9443189  48.4464499
  11.2713130  12.9784271  55.2133741  11.7467252  13.1711917  54.4052592
  10.3478695  13.0343457  54.9677124   3.9039409  20.6091391  41.2615497
   3.3313376  21.2281578  40.8085969   4.4772203  21.1590753  41.7955419
   7.1236669  20.8928541  42.3924080   8.0567342  20.8274103  42.5956955
   7.0359882  21.7284808  41.9338612   9.7524686  20.2094412  39.3528027
   9.6738317  19.8754275  40.2463785  10.5734352  20.7016179  39.3519500
  12.4502877  13.0756151  52.5604346  12.4179197  12.1372152  52.7464030
  13.0603500  13.1540188  51.8270171   4.2886208  11.9452204  38.6031550
   5.2345312  11.8158412  38.6719968   3.9100453  11.2066866  39.0800978
  12.5997365   9.8667194  52.6062629  12.0836414   9.0825651  52.4192558
  13.4837314   9.5385911  52.7709148  18.2679427  14.1372158  51.7010383
  18.9982815  13.8757446  52.2618086  17.6586372  13.4000880  51.7412451
  16.3494724  12.2780020  52.2984834  15.6227887  12.1435985  51.6901325
  15.9342011  12.5856849  53.1041552   8.1785424   7.7617732  44.8789986
   7.2911279   8.0467383  44.6610180   8.5939413   7.6011496  44.0317262
  11.5299960   7.7864253  48.5944325  12.3060350   8.2760706  48.8668942
  10.8048094   8.2122307  49.0516194  13.9672519   8.4991872  49.6518265
  14.5617009   8.2587608  48.9411574  14.0399102   7.7799003  50.2791802
   7.3228637  17.5262407  38.9738006   8.0264487  17.7312409  39.5895661
   6.5991286  18.0939169  39.2387089   8.1526448  13.2772268  45.0940276
   8.0961649  13.7340820  44.2547908   8.7054790  12.5162953  44.9163118
  11.9631254   9.0662000  45.9190395  11.7068188   8.6658636  46.7498603
  11.3384122   9.7805794  45.7940534  16.2743591  11.8058073  48.4261687
  15.7143149  11.8751263  49.1993249  15.6687095  11.6299058  47.7061183
   9.2315335  17.9644936  41.0236466  10.0660939  17.5326135  40.8413940
   9.0699678  17.7926950  41.9513360   8.8861227  14.4677049  42.3892805
   8.8310031  14.3021321  41.4481249   8.2607282  15.1753082  42.5454995
   2.1246916  22.6454049  50.0545880   1.1742547  22.6455910  49.9410252
   2.4279402  21.8986783  49.5381915  17.8599610  28.4814587  51.1191642
  18.4978020  28.3621335  50.4154982  17.7420453  29.4295431  51.1779594
  14.6689316  28.4342015  51.0553167  14.3307828  28.3183080  50.1673702
  15.5379084  28.0333180  51.0354173  10.5276132  30.2877492  47.0450058
   9.9640997  30.1967429  46.2766346  10.4128527  29.4677396  47.5252551
  15.1509099  29.5876867  57.0139373  15.1397740  29.1929665  56.1419876
  15.3129739  28.8542940  57.6073144   8.0740564  31.7828683  49.8834278
   8.8661856  31.4419508  49.4680578   8.3137214  31.8923658  50.8036432
  16.1075691  33.9548459  42.3564523  15.4563670  34.5402540  41.9698537
  16.9020053  34.4854654  42.4159560  10.0331318  31.0437597  42.7551657
  10.8062194  30.4966584  42.6164533  10.3856717  31.9081846  42.9666119
  11.8716360  32.3713979  55.9618557  11.5806226  33.2759610  55.8465223
  12.5073345  32.4130506  56.6762626  12.7972567  29.7490827  52.5519916
  13.3936139  29.5246850  51.8376879  12.8547539  29.0075573  53.1545364
  12.3697596  27.2030263  40.3870107  12.6223116  26.6811784  39.6253570
  11.4322155  27.0396408  40.4896791  17.4140878  26.2066041  48.1944850
  18.2003968  25.7885464  47.8435267  17.6779583  27.1112133  48.3626499
  22.8149305  26.1441274  49.0977829  23.5474477  25.5740491  49.3315658
  22.0588661  25.7562875  49.5384334  12.0893884  29.1058369  42.5894482
  11.9730142  28.4303272  43.2575566  12.1996144  28.6190743  41.7726635
  14.4325425  28.5668516  46.2941171  14.0683632  28.0399137  47.0054093
  15.2892541  28.1766985  46.1207657  20.3374726  19.8562848  53.5572437
  20.0058051  20.7258259  53.3333652  19.7420339  19.5399132  54.2366468
  14.0730912  23.5958415  41.2902520  14.2405315  24.4638652  41.6572991
  13.8828081  23.7585697  40.3663809  16.8306245  32.0575394  52.9568350
  16.5306968  32.9600433  52.8484157  16.4857305  31.7907578  53.8089503
  10.2818727  28.5089191  48.9905055   9.3569223  28.3765405  49.1982746
  10.5303140  29.2883410  49.4874997  20.2303389  24.5757935  50.6365788
  19.3220266  24.5073343  50.3424549  20.1790985  25.0529879  51.4647613
  14.0520133  26.0516073  42.2749187  13.9319758  26.4973124  43.1134667
  13.3572721  26.4001391  41.7162725   7.6427538  28.1522465  49.8248844
   7.7719919  28.4056944  50.7388255   6.9624989  28.7450173  49.5053499
  11.8127025  38.8219715  45.9239318  11.7351055  39.7727540  46.0027798
  11.2088669  38.4765587  46.5814244  14.3044255  25.9947580  58.5800685
  13.5277589  26.5541500  58.5703549  14.9434818  26.4804363  59.1015555
  22.0965036  22.7774373  52.4143661  21.4539416  23.0706906  51.7683456
  21.5919964  22.6627293  53.2196858  12.5590627  28.8033034  58.1418652
  13.3005312  29.3418077  57.8653475  11.8527613  29.4299322  58.2990204
  18.0345967  30.9462174  56.7390813  18.4429323  30.5044584  55.9945446
  17.3123228  30.3714801  56.9925006  14.3877037  25.8834781  54.1124370
  15.2338232  26.3074194  54.2559019  14.3275675  25.2268405  54.8062933
  18.3574782  31.5063365  50.4943102  17.7283644  31.6709079  49.7919170
  17.9700444  31.9204974  51.2654066  22.2364013  32.4417802  47.8487466
  21.5515052  32.8216704  47.2984499  22.3207863  33.0513129  48.5819414
  17.5376482  23.5439149  55.7705544  17.2937414  24.2981210  55.2339820
  17.8136413  23.9224497  56.6052791  19.4914945  30.0877761  54.4482809
  19.7031840  30.7309521  53.7717191  19.4444693  29.2540078  53.9804740
  17.0941174  22.6995582  51.3519382  16.2325653  22.9976836  51.6436119
  17.1203609  22.9165981  50.4200414  13.9102743  31.2437773  47.7593187
  14.3741089  31.5225476  46.9697810  13.6459541  30.3421217  47.5766278
  10.8026824  30.7909254  50.6972951  11.3728182  31.2196523  50.0590435
  11.3934936  30.5091839  51.3957136  12.8471629  27.3660925  44.5682752
  13.5495673  27.8181969  45.0356679  12.5152258  26.7244744  45.1962646
  11.2951991  25.9572682  58.9433962  10.6650652  26.6388963  59.1769359
  11.1888079  25.8455763  57.9987100   6.5896963  25.6244478  49.8699886
   5.7996017  25.8802006  49.3939997   7.0808211  26.4392816  49.9751927
  20.6060773  32.9649717  52.6205167  21.4278217  32.5629904  52.3387848
  20.6023176  32.8617951  53.5721283   8.5411709  25.9889057  46.8283363
   7.7442872  26.1007751  47.3466858   8.3137301  26.3275709  45.9624253
  14.3717376  32.5133760  54.7765877  14.4361809  32.9754167  55.6124049
  13.6628300  31.8831125  54.9048187   4.8734666  25.8774968  52.3014877
   5.1242705  26.7621978  52.5672453   5.4094215  25.6979570  51.5289969
  14.0865394  34.1801868  44.6444858  13.9511069  35.0253403  45.0729705
  14.6275207  34.3821145  43.8810791   7.5394791  31.6977306  45.2172783
   8.0519312  32.4920556  45.3678347   8.1917504  31.0003596  45.1506384
   9.3489676  34.8143062  47.2995536   9.5256304  35.7361027  47.1116520
  10.1446510  34.5001481  47.7289916  13.4900695  21.6751327  58.8979469
  14.2310408  22.2758480  58.8183932  13.7218618  20.9328964  58.3397512
   8.6342033  26.8607694  57.1757699   8.5195548  25.9592951  57.4764798
   7.7786550  27.1071391  56.8242516  15.7133870  34.8025434  58.7745200
  15.2697725  34.0161813  58.4566104  16.3751084  34.9904585  58.1089091
  10.4720992  36.3321236  53.3005878  11.0228417  36.2038299  52.5282872
   9.6332468  36.6316125  52.9500771  17.8115108  35.0828234  56.8026601
  17.7933584  35.9037115  56.3106870  18.7335029  34.9582309  57.0276742
  14.2688163  32.5972364  57.6450109  14.8016499  31.8360652  57.4149417
  13.7402244  32.3046015  58.3874264  17.4357858  17.7032430  53.1743751
  17.0922127  18.5934071  53.0982862  17.8036820  17.5134087  52.3113336
   5.5043708  30.0265960  45.9932353   6.3418930  30.4362968  45.7766061
   5.6821976  29.0865402  45.9632547  14.9855251  22.5390741  46.7401425
  14.1296848  22.1497592  46.5607063  15.3982203  22.6182702  45.8801210
  16.5154398  20.0737085  51.1392984  16.0119194  20.0367220  50.3260790
  16.8085005  20.9829827  51.1989641  12.7597284  20.1575814  50.1459166
  13.6250281  19.9618623  49.7865056  12.8274793  19.9286166  51.0728523
  15.6340875  31.7258356  45.1568921  15.1062237  30.9911116  44.8442159
  15.1328378  32.5033032  44.9108890  20.6133721  29.9207377  50.2735968
  19.9557396  30.6106638  50.3616096  21.4174121  30.3103809  50.6169954
  10.3659603  22.3878022  47.5175533  10.9403355  22.1653204  46.7848726
  10.9530585  22.4566717  48.2704134  19.4239180  28.2751749  48.3239909
  19.9371062  28.9081741  48.8261619  20.0740404  27.6752945  47.9583269
  10.6929190  24.4182483  41.5371418   9.8566502  24.7557170  41.8580693
  10.5533960  24.2831463  40.5998555  12.6682271  19.2619271  46.2450602
  12.0146683  18.9468288  45.6207217  12.6262745  18.6395012  46.9710425
  13.7793476  29.5438566  38.1603894  12.8720537  29.3127820  38.3595043
  14.2764508  28.7476186  38.3477876  15.9020011  25.7501205  50.5698250
  14.9842572  25.9716152  50.4119938  16.3180155  25.8247515  49.7109957
  16.6855059  27.1492620  45.7000930  17.4326878  27.6614018  45.3908052
  16.9546648  26.8276673  46.5605324  14.9581709  29.6451161  42.6827885
  14.0492928  29.3610194  42.7800354  14.9876793  30.0650240  41.8231191
  20.1900976  33.2557751  46.4519052  19.7363303  32.4148661  46.5084243
  19.5594943  33.8919149  46.7893832  19.1333896  24.1849737  47.6819720
  18.3956653  23.6727123  48.0129962  19.3860669  23.7450118  46.8702996
  18.6333916  35.0934247  47.3868870  18.9256890  35.6539305  46.6681236
  19.1432536  35.3862808  48.1422029  19.2345523  16.9625989  48.2761489
  19.5404400  16.1023352  47.9887404  19.9598128  17.5543609  48.0760483
   5.5269879  27.3656675  46.6643087   5.3294279  26.7726036  45.9394153
   4.9716543  27.0608886  47.3819026  13.5066603  27.2579782  48.7837680
  13.5615213  26.3053618  48.7080156  12.6957805  27.4139221  49.2678978
  11.4458963  25.8756842  46.5428059  10.6326828  26.1751012  46.9493251
  11.9417957  25.4812530  47.2602541  13.5967541  35.8714598  48.4762323
  13.5543720  36.0975445  47.5470855  14.5130240  35.6377973  48.6248125
  17.0433175  26.3398666  55.3742953  17.3982562  26.5670139  56.2337418
  17.6905306  26.6717043  54.7520208  10.9373038  23.4475197  52.1589294
  11.5772417  23.3063956  51.4612257  10.1050568  23.1609710  51.7827896
  22.8000291  31.5293629  51.0903553  23.2336798  31.4368918  51.9386607
  23.5131872  31.5051129  50.4523569  11.7133342  32.7477627  48.2724286
  12.5073940  32.2527948  48.0706861  11.0025034  32.2195491  47.9091992
  16.5328186  35.1295723  52.6236654  16.5865208  35.6986659  53.3914370
  15.6642967  35.2997608  52.2590691   8.0216105  26.8920709  44.3484039
   7.0913693  26.8305165  44.5654001   8.1173577  26.3696662  43.5520680
   7.9401654  23.4175522  46.9362280   8.2008471  24.3320855  46.8271441
   8.7618826  22.9499965  47.0858893   9.4126579  24.8313279  54.1061105
  10.0849633  24.6230641  53.4573754   8.5856366  24.6335365  53.6666337
  23.6615841  31.5717330  53.6236439  23.8551731  32.4763140  53.8695713
  23.5616459  31.1124749  54.4575024  15.3152151  21.4575220  56.1226766
  14.6680067  22.1565170  56.0291242  16.0853167  21.8911364  56.4903014
  18.7230949  31.7224072  59.1977319  18.5716456  31.4934624  58.2807403
  18.7135629  32.6794674  59.2108664  15.4916286  29.2955985  54.1823586
  16.4208346  29.4467145  54.0092553  15.0707316  29.3840006  53.3272232
  14.2904618  33.3206649  51.9522123  14.1515703  32.9525434  52.8248061
  13.5019214  33.8354289  51.7806081  15.8409833  32.6988252  49.3410961
  15.5059665  32.6589022  50.2368611  15.3413778  32.0332968  48.8681371
   9.8154077  28.1055882  54.8663542   9.6773875  27.3736121  55.4675081
  10.7259000  28.0164782  54.5847730  12.4436377  27.8175842  54.3547222
  13.1535996  27.1769034  54.3133840  12.4005686  28.0688736  55.2773403
  20.4323156  34.7543195  57.2753801  20.3735702  34.0702415  56.6084384
  20.8342674  35.4962185  56.8234427  11.1565311  24.8041059  56.1742861
  10.6202668  24.3531798  56.8264458  10.5682020  24.9386968  55.4313326
   9.4513855  41.5705109  50.0687520   9.6910453  42.2023633  50.7466538
   8.6083051  41.2193149  50.3552879  10.5667570  24.2629711  38.7369325
   9.6897037  24.1418512  38.3731572  11.0425323  23.4715789  38.4848214
  20.4340563  32.7182779  55.5067781  19.5467342  32.3808701  55.6294180
  21.0039114  31.9865810  55.7436546   2.0869710  29.0506871  48.8310832
   2.7740750  28.7368601  48.2431847   1.9317839  29.9548235  48.5578084
   6.8904433  23.9397067  53.2595856   6.8062621  23.3322737  52.5246266
   6.0687139  24.4306085  53.2605352  13.9641717  37.3784231  52.4729024
  13.8911888  38.1839203  52.9848328  13.5219110  37.5776197  51.6477045
  13.7531496  36.6156001  45.9831845  12.9699018  37.1577681  46.0770070
  14.4524242  37.1329981  46.3826087  17.0628146  22.4250631  48.6266051
  17.5596846  21.6720593  48.3067121  16.2915128  22.4614947  48.0609260
  24.9157904  28.1290996  50.2684342  24.9047780  29.0115712  49.8978275
  24.0475283  27.7762547  50.0738879  16.4240400  37.2771065  54.6287183
  17.1368372  37.9118530  54.5563084  15.9330429  37.3734931  53.8127184
  18.1457927  31.1822318  46.2004474  17.2114206  31.3023780  46.0309179
  18.3234596  30.2794785  45.9364484  13.6463115  24.5668014  48.3537735
  13.2760903  24.0139054  49.0418641  14.1422208  23.9626147  47.8012735
  21.5330478  27.0239637  46.7354508  21.9990931  27.8567629  46.6614811
  21.9837979  26.5584619  47.4399767  11.4752314  35.0265509  55.4492753
  12.1761773  35.6601992  55.6022148  11.0047429  35.3680240  54.6888393
  19.5047141  19.3920224  50.7745410  18.5910221  19.6224451  50.9427617
  19.9340243  19.4758668  51.6259442  19.2753600  27.5810116  53.2745304
  18.6225050  27.8286024  52.6197756  19.6533980  26.7674254  52.9407781
  16.2360774  37.6169809  47.3773474  16.4183168  36.7991465  47.8401226
  17.0593760  37.8337502  46.9398364  15.3241173  28.3229927  59.7611341
  14.6481810  28.2224056  60.4313716  16.1468807  28.1669141  60.2247338
   7.0720032  34.5601864  52.3823856   7.6573469  33.8145552  52.5151760
   6.8744870  34.8705820  53.2660520   9.9258687  37.5953111  47.3986298
   9.2569062  38.0799239  46.9150339   9.7871557  37.8422332  48.3129677
   1.6637687  27.1307464  51.1028299   1.7021786  26.5971055  51.8965417
   1.1577979  26.6042669  50.4839276  14.0663956  39.6296855  53.9968957
  14.6182264  39.7928476  54.7618042  14.4070149  40.2201292  53.3248982
   9.0428449  21.9772004  54.5990842   9.1069775  22.8386835  54.1868239
   8.9795569  21.3646006  53.8663200   8.5180721  24.0495137  58.2463876
   9.1452760  23.6672214  58.8601400   7.6608640  23.8309339  58.6119568
  18.9174830  34.4558112  59.8517611  19.4614734  35.0688070  59.3572566
  18.3361675  35.0137691  60.3684624   5.2946264  25.8571566  44.1782231
   5.5899705  24.9482244  44.1249284   4.3934300  25.8359306  43.8563233
  17.2032343  37.5778830  50.9832639  17.0783482  36.7768570  50.4743584
  17.8611434  38.0725024  50.4946609   8.8240511  23.9327563  50.1609779
   8.1027097  24.5463530  50.0217253   9.6133767  24.4685327  50.0826425
  19.2667251  35.3787850  52.6112189  18.3197587  35.2593201  52.5390516
  19.6150024  34.4910348  52.6938451  11.6266825  21.2681989  56.4350431
  12.1501226  21.5144286  57.1976740  11.4079158  22.1002024  56.0153568
   7.0234106  23.5385664  44.3021556   6.6946812  22.6583043  44.1196662
   7.3773476  23.4833332  45.1897945  16.2713685  35.1740566  48.8116541
  16.1238647  34.2457274  48.9924111  17.0967178  35.1960657  48.3273617
  10.1375929  23.8258634  44.6697033  10.4772001  24.3544555  43.9475642
  10.5848049  24.1639040  45.4455600  19.8747806  35.9969125  49.8981414
  20.7994354  35.7911987  49.7605865  19.7063110  35.7485526  50.8070756
  12.8319370  22.2095684  54.1200101  12.4916190  21.4103497  54.5220781
  12.1258376  22.5097395  53.5476935  13.4835842  19.2944997  52.5727425
  14.3061911  18.8205475  52.4506315  13.7273905  20.0735480  53.0726111
  16.2675199  23.0278404  43.8048659  16.4838813  23.9103042  43.5037487
  15.7869266  22.6364617  43.0754301  11.0074420  25.9864117  50.3819403
  10.8619001  26.3004420  51.2743685  10.5299624  26.6049018  49.8290302
  12.8670803  22.9766665  50.4300293  12.8532372  22.0807759  50.0932591
  13.5843231  22.9837329  51.0638579  14.7196934  23.4104006  52.4753420
  14.4614712  24.3321076  52.4737751  14.1881974  23.0134440  53.1653884
   5.4820082  28.5269462  53.3207064   4.9373551  29.3029270  53.4527339
   6.3599432  28.8740266  53.1626186  12.2707699  21.8581046  45.6987863
  12.3923610  20.9297692  45.8978750  11.9809741  21.8719732  44.7866178
  15.1398889  19.5435956  48.8354583  15.1620586  19.6075289  47.8806562
  15.5566949  18.7040465  49.0295089   6.2686104  27.6539358  56.2137221
   5.5267840  27.8021993  56.8001852   5.9478849  27.9147624  55.3503971
  14.2129767  37.1955336  56.0117611  14.5216893  36.9504483  56.8840311
  15.0105249  37.4001975  55.5236481  14.2350379  39.3493246  48.2422988
  13.7955369  38.8569625  48.9355844  14.9858496  38.8066214  48.0015063
   6.7142718  35.5404787  48.2447616   7.5400738  35.2408559  47.8646259
   6.3636770  34.7712409  48.6937404  11.6824251  34.8931255  50.3145289
  11.0604260  34.2301960  50.0147517  12.3529118  34.9192387  49.6318937
   4.9151323  33.4591113  49.2036549   4.0783231  33.0313288  49.0220551
   4.8874968  33.6523556  50.1407341  11.7548779  23.3713043  59.9077795
  11.8036934  24.2475166  59.5255565  12.2971293  22.8290436  59.3349439
  22.2403624  33.9154166  59.1878933  21.4499168  33.8978305  58.6483432
  22.0036979  34.4542460  59.9427969  22.3601499  30.7646633  56.5011661
  22.4099504  30.5996640  57.4427184  22.2515423  29.8973892  56.1109542
  11.2437758  33.4435178  43.7903750  11.3925878  34.1270643  43.1370423
  12.0504202  33.4240268  44.3053206  19.6505262  26.7477561  57.8170968
  20.5515125  26.6084025  57.5254966  19.7253236  26.9132015  58.7569145
  13.9848067  24.1244415  56.6624154  13.1151377  24.4177981  56.3906743
  14.2207547  24.7084860  57.3831418  23.8619696  33.1843574  56.7453683
  23.5704505  33.5473555  57.5817144  23.2491827  32.4710582  56.5667015
  22.1106884  28.3076189  55.2133741  22.5861006  28.5003835  54.4052592
  21.1872450  28.3635375  54.9677124   8.9990391  29.4700356  44.7964819
   8.7536433  28.5662686  44.9945029   9.1686306  29.4717506  43.8544297
  16.6887101  20.3424032  54.1789574  17.2069045  21.0785059  53.8536063
  16.3342234  20.6488026  55.0136334   8.2686039  25.2028713  42.2950980
   7.5755284  25.2773068  41.6391016   8.0237790  24.4389057  42.8172497
  16.9399695  16.7624315  49.6990471  17.2201449  16.0947504  50.3250898
  17.7250302  16.9553410  49.1865135  14.7433164  35.9383309  41.2615497
  14.1707131  36.5573496  40.8085969  15.3165957  36.4882670  41.7955419
  20.8108553  25.1841949  53.4462046  21.7625976  25.2840046  53.4674270
  20.6412004  24.3920217  53.9560131  18.8322933  22.2697532  53.6321447
  18.2372865  22.5502545  52.9367936  18.5472630  22.7591433  54.4038188
  23.2896631  28.4048068  52.5604346  23.2572951  27.4664069  52.7464030
  23.8997255  28.4832105  51.8270171  23.4391120  25.1959112  52.6062629
  22.9230168  24.4117569  52.4192558  24.3231068  24.8677829  52.7709148
  21.1001847  18.9400127  48.5658442  20.9026668  18.6315216  49.4501774
  21.7101552  19.6661766  48.6956372  15.0118655  31.3261868  60.0632207
  15.9321664  31.5040467  60.2572253  14.9768238  30.3817913  59.9111906
  13.3122879  25.1994098  38.5386435  12.4054335  24.9027211  38.6149149
  13.5898860  24.9023916  37.6720721   4.2300820  26.5200461  48.9885481
   3.9103604  25.6665769  48.6959855   3.6834248  26.7349039  49.7443449
   8.0080727  29.2362902  52.7054988   8.2266737  30.1680010  52.7243022
   8.4206501  28.8770877  53.4909792  14.9284945  19.7430988  44.6930676
  14.1185673  19.3978073  45.0685922  15.6169362  19.4338531  45.2818288
  16.8575493  18.8209034  46.3154973  17.4106532  19.2404488  46.9744996
  17.0945580  17.8944782  46.3577929  12.8808592  24.8096108  62.0957737
  12.7805319  25.7590465  62.0269828  12.6630135  24.4814347  61.2233807
  12.0821664  22.0581033  38.6798414  12.9440828  22.3835931  38.9394232
  12.2672008  21.2712529  38.1671480   4.0989080  30.1403373  50.9578603
   3.4052551  29.7257326  50.4448557   4.8462071  30.1823909  50.3612022
  20.2354300  20.9309560  45.8233637  19.6552969  21.5894364  45.4411690
  19.9690233  20.1086904  45.4121055  18.6857867  20.3314617  48.0254958
  19.1857645  20.4431152  47.2169276  19.3293475  20.0275670  48.6655766
  12.7439863  28.2393247  60.9122799  12.2606944  29.0393607  61.1186688
  12.8300802  28.2501192  59.9590243   6.0125822  30.0721627  48.8344618
   5.9896510  30.1709314  47.8826501   6.3226459  30.9186777  49.1561784
   8.6713200  32.1297782  52.9491232   9.6256454  32.0981724  52.8821164
   8.4725724  31.6688405  53.7641458   9.2612582  30.6998898  55.5162030
  10.0805471  31.1942976  55.5396867   9.5349390  29.7830866  55.4879598
  19.0179178  23.0909650  44.8789986  18.1305033  23.3759301  44.6610180
  19.4333167  22.9303413  44.0317262  22.3693715  23.1156171  48.5944325
  23.1454105  23.6052623  48.8668942  21.6441849  23.5414225  49.0516194
  24.8066273  23.8283790  49.6518265  25.4010764  23.5879526  48.9411574
  24.8792857  23.1090921  50.2791802   7.0263429  37.6717401  49.9661430
   6.8917897  36.9117802  49.3999428   6.6095491  38.3958301  49.4990219
  18.9920202  28.6064186  45.0940276  18.9355404  29.0632737  44.2547908
  19.5448545  27.8454870  44.9163118  10.1832555  38.5686718  50.1779873
  10.0664939  39.5132151  50.0758563   9.3625001  38.2660280  50.5665672
   4.5147496  25.0337031  56.2154227   5.1606360  24.5235985  56.7041452
   4.3064648  25.7705713  56.7897652  17.0400889  32.1017879  61.7146368
  17.9092048  32.2758531  61.3533003  16.5607640  32.9212296  61.5922097
  13.0351107  19.2977076  41.9678123  13.0229777  20.2418916  42.1246394
  13.9274529  19.1147222  41.6737584  11.2087069  39.2214980  53.3935801
  12.1114316  39.2538590  53.7102296  10.9824439  38.2915431  53.4082137
  12.9640671  37.9745967  50.0545880  12.0136302  37.9747828  49.9410252
  13.2673157  37.2278701  49.5381915  16.8503226  15.8919853  46.2224060
  16.0835622  15.3378339  46.3680742  17.2613931  15.9641722  47.0838212
  28.6993364  43.8106505  51.1191642  29.3371774  43.6913252  50.4154982
  28.5814207  44.7587349  51.1779594  25.5083071  43.7633933  51.0553167
  25.1701582  43.6474998  50.1673702  26.3772839  43.3625098  51.0354173
  21.3669886  45.6169409  47.0450058  20.8034751  45.5259346  46.2766346
  21.2522281  44.7969314  47.5252551  25.9902854  44.9168785  57.0139373
  25.9791494  44.5221583  56.1419876  26.1523493  44.1834857  57.6073144
  18.9134318  47.1120601  49.8834278  19.7055610  46.7711426  49.4680578
  19.1530968  47.2215576  50.8036432  26.9469445  49.2840377  42.3564523
  26.2957425  49.8694458  41.9698537  27.7413808  49.8146572  42.4159560
  22.7110115  47.7005897  55.9618557  22.4199981  48.6051527  55.8465223
  23.3467099  47.7422424  56.6762626  23.6366322  45.0782745  52.5519916
  24.2329894  44.8538767  51.8376879  23.6941293  44.3367491  53.1545364
  28.4244710  46.9730809  42.8933507  27.7890543  47.0465436  43.6054412
  28.0942117  47.5624408  42.2152586  25.2719180  43.8960433  46.2941171
  24.9077387  43.3691054  47.0054093  26.1286296  43.5058903  46.1207657
  27.6700000  47.3867312  52.9568350  27.3700723  48.2892351  52.8484157
  27.3251059  47.1199495  53.8089503  21.1212481  43.8381109  48.9905055
  20.1962978  43.7057323  49.1982746  21.3696895  44.6175328  49.4874997
  31.0697144  39.9049852  50.6365788  30.1614021  39.8365261  50.3424549
  31.0184739  40.3821797  51.4647613  18.4821292  43.4814382  49.8248844
  18.6113674  43.7348861  50.7388255  17.8018744  44.0742090  49.5053499
  22.6520780  54.1511632  45.9239318  22.5744809  55.1019457  46.0027798
  22.0482423  53.8057505  46.5814244  25.1438009  41.3239498  58.5800685
  24.3671343  41.8833418  58.5703549  25.7828572  41.8096281  59.1015555
  23.3984382  44.1324951  58.1418652  24.1399066  44.6709995  57.8653475
  22.6921367  44.7591240  58.2990204  28.8739721  46.2754092  56.7390813
  29.2823077  45.8336502  55.9945446  28.1516983  45.7006719  56.9925006
  25.2270791  41.2126698  54.1124370  26.0731987  41.6366112  54.2559019
  25.1669429  40.5560323  54.8062933  29.1968536  46.8355282  50.4943102
  28.5677398  47.0000996  49.7919170  28.8094198  47.2496892  51.2654066
  28.3770237  38.8731067  55.7705544  28.1331169  39.6273127  55.2339820
  28.6530167  39.2516414  56.6052791  30.3308699  45.4169679  54.4482809
  30.5425595  46.0601439  53.7717191  30.2838448  44.5831996  53.9804740
  27.9334928  38.0287500  51.3519382  27.0719407  38.3268753  51.6436119
  27.9597363  38.2457899  50.4200414  24.7496498  46.5729690  47.7593187
  25.2134843  46.8517393  46.9697810  24.4853296  45.6713135  47.5766278
  21.6420579  46.1201172  50.6972951  22.2121936  46.5488440  50.0590435
  22.2328691  45.8383757  51.3957136  22.1345745  41.2864599  58.9433962
  21.5044406  41.9680880  59.1769359  22.0281833  41.1747681  57.9987100
  17.4290718  40.9536395  49.8699886  16.6389772  41.2093924  49.3939997
  17.9201965  41.7684733  49.9751927  31.4454527  48.2941635  52.6205167
  32.2671971  47.8921822  52.3387848  31.4416930  48.1909869  53.5721283
  25.2111131  47.8425678  54.7765877  25.2755563  48.3046085  55.6124049
  24.5022055  47.2123043  54.9048187  15.7128421  41.2066886  52.3014877
  15.9636459  42.0913896  52.5672453  16.2487969  41.0271487  51.5289969
  24.9259149  49.5093785  44.6444858  24.7904823  50.3545321  45.0729705
  25.4668961  49.7113063  43.8810791  21.4126488  35.5885365  61.3059213
  21.0193434  35.0351564  61.9806857  22.2292629  35.8995944  61.6965730
  18.3788546  47.0269223  45.2172783  18.8913066  47.8212474  45.3678347
  19.0311259  46.3295514  45.1506384  20.1883431  50.1434980  47.2995536
  20.3650059  51.0652944  47.1116520  20.9840264  49.8293399  47.7289916
  24.3294449  37.0043244  58.8979469  25.0704163  37.6050397  58.8183932
  24.5612372  36.2620882  58.3397512  19.4735787  42.1899612  57.1757699
  19.3589302  41.2884869  57.4764798  18.6180305  42.4363308  56.8242516
  26.5527625  50.1317352  58.7745200  26.1091479  49.3453730  58.4566104
  27.2144839  50.3196502  58.1089091  21.3114746  51.6613153  53.3005878
  21.8622171  51.5330217  52.5282872  20.4726222  51.9608042  52.9500771
  28.6508863  50.4120152  56.8026601  28.6327338  51.2329033  56.3106870
  29.5728783  50.2874227  57.0276742  25.1081917  47.9264281  57.6450109
  25.6410254  47.1652569  57.4149417  24.5795998  47.6337933  58.3874264
  16.3437463  45.3557878  45.9932353  17.1812685  45.7654886  45.7766061
  16.5215730  44.4157320  45.9632547  25.8249006  37.8682659  46.7401425
  24.9690602  37.4789510  46.5607063  26.2375958  37.9474620  45.8801210
  23.5991038  35.4867732  50.1459166  24.4644035  35.2910541  49.7865056
  23.6668547  35.2578084  51.0728523  26.4734630  47.0550274  45.1568921
  25.9455991  46.3203033  44.8442159  25.9722133  47.8324950  44.9108890
  31.4527476  45.2499294  50.2735968  30.7951150  45.9398556  50.3616096
  32.2567875  45.6395726  50.6169954  23.5076025  34.5911189  46.2450602
  22.8540438  34.2760206  45.6207217  23.4656499  33.9686929  46.9710425
  27.5255309  53.5827991  41.0800581  26.8517008  53.8859688  41.6885538
  27.9121131  54.3857072  40.7306038  26.7413766  41.0793122  50.5698250
  25.8236327  41.3008069  50.4119938  27.1573909  41.1539433  49.7109957
  31.0294731  48.5849668  46.4519052  30.5757058  47.7440578  46.5084243
  30.3988698  49.2211067  46.7893832  29.4727670  50.4226165  47.3868870
  29.7650644  50.9831222  46.6681236  29.9826291  50.7154726  48.1422029
  16.3663634  42.6948593  46.6643087  16.1688034  42.1017954  45.9394153
  15.8110298  42.3900803  47.3819026  24.3460358  42.5871699  48.7837680
  24.4008967  41.6345536  48.7080156  23.5351560  42.7431139  49.2678978
  25.4951551  46.5151823  40.0215963  25.0570981  45.7987681  39.5621600
  26.2361992  46.7427937  39.4601054  22.2852717  41.2048759  46.5428059
  21.4720583  41.5042930  46.9493251  22.7811712  40.8104448  47.2602541
  24.4361295  51.2006516  48.4762323  24.3937474  51.4267362  47.5470855
  25.3523994  50.9669891  48.6248125  27.8826929  41.6690584  55.3742953
  28.2376317  41.8962057  56.2337418  28.5299060  42.0008960  54.7520208
  21.7766792  38.7767115  52.1589294  22.4166172  38.6355874  51.4612257
  20.9444323  38.4901628  51.7827896  33.6394046  46.8585547  51.0903553
  34.0730552  46.7660836  51.9386607  34.3525626  46.8343047  50.4523569
  22.5527096  48.0769545  48.2724286  23.3467695  47.5819865  48.0706861
  21.8418788  47.5487408  47.9091992  27.3721941  50.4587641  52.6236654
  27.4258963  51.0278577  53.3914370  26.5036722  50.6289526  52.2590691
  20.2520334  40.1605197  54.1061105  20.9243387  39.9522559  53.4573754
  19.4250120  39.9627283  53.6666337  34.5009595  46.9009247  53.6236439
  34.6945485  47.8055058  53.8695713  34.4010213  46.4416666  54.4575024
  26.1545906  36.7867138  56.1226766  25.5073821  37.4857087  56.0291242
  26.9246921  37.2203282  56.4903014  29.5624704  47.0515990  59.1977319
  29.4110210  46.8226542  58.2807403  29.5529383  48.0086591  59.2108664
  26.3310040  44.6247903  54.1823586  27.2602100  44.7759062  54.0092553
  25.9101070  44.7131924  53.3272232  25.1298372  48.6498567  51.9522123
  24.9909458  48.2817352  52.8248061  24.3412968  49.1646207  51.7806081
  25.7246524  53.7507664  43.2947660  25.8998280  53.2795707  44.1093282
  25.0379312  54.3773430  43.5228920  26.6803587  48.0280170  49.3410961
  26.3453420  47.9880940  50.2368611  26.1807533  47.3624886  48.8681371
  20.6547831  43.4347800  54.8663542  20.5167629  42.7028039  55.4675081
  21.5652755  43.3456700  54.5847730  23.2830132  43.1467759  54.3547222
  23.9929750  42.5060951  54.3133840  23.2399440  43.3980654  55.2773403
  31.2716911  50.0835113  57.2753801  31.2129457  49.3994333  56.6084384
  31.6736429  50.8254103  56.8234427  21.9959066  40.1332977  56.1742861
  21.4596423  39.6823716  56.8264458  21.4075774  40.2678886  55.4313326
  20.2907609  56.8997026  50.0687520  20.5304208  57.5315551  50.7466538
  19.4476806  56.5485066  50.3552879  31.2734318  48.0474696  55.5067781
  30.3861097  47.7100618  55.6294180  31.8432869  47.3157728  55.7436546
  12.9263465  44.3798788  48.8310832  13.6134505  44.0660518  48.2431847
  12.7711594  45.2840153  48.5578084  17.7298187  39.2688985  53.2595856
  17.6456376  38.6614654  52.5246266  16.9080893  39.7598003  53.2605352
  24.8035471  52.7076149  52.4729024  24.7305643  53.5131120  52.9848328
  24.3612864  52.9068115  51.6477045  24.5925251  51.9447919  45.9831845
  23.8092773  52.4869599  46.0770070  25.2917996  52.4621899  46.3826087
  27.9021901  37.7542548  48.6266051  28.3990600  37.0012511  48.3067121
  27.1308882  37.7906865  48.0609260  27.2634155  52.6062983  54.6287183
  27.9762127  53.2410448  54.5563084  26.7724183  52.7026849  53.8127184
  24.4856870  39.8959931  48.3537735  24.1154657  39.3430972  49.0418641
  24.9815962  39.2918065  47.8012735  22.3146068  50.3557426  55.4492753
  23.0155528  50.9893909  55.6022148  21.8441183  50.6972158  54.6888393
  30.4400464  48.6975376  43.7340660  30.7160308  48.5831971  44.6434534
  29.5704963  48.2992861  43.6952834  30.1147354  42.9102034  53.2745304
  29.4618804  43.1577941  52.6197756  30.4927734  42.0966172  52.9407781
  27.0754528  52.9461727  47.3773474  27.2576923  52.1283383  47.8401226
  27.8987514  53.1629419  46.9398364  27.4096694  51.8729912  44.6388523
  27.9384460  51.3622367  44.0258685  27.6724913  51.5572442  45.5034056
  26.1634927  43.6521845  59.7611341  25.4875564  43.5515974  60.4313716
  26.9862561  43.4961059  60.2247338  17.9113786  49.8893781  52.3823856
  18.4967223  49.1437469  52.5151760  17.7138625  50.1997738  53.2660520
  20.7652442  52.9245029  47.3986298  20.0962817  53.4091156  46.9150339
  20.6265311  53.1714249  48.3129677  12.5031441  42.4599382  51.1028299
  12.5415541  41.9262972  51.8965417  11.9971734  41.9334587  50.4839276
  24.9057710  54.9588772  53.9968957  25.4576018  55.1220394  54.7618042
  25.2463904  55.5493210  53.3248982  19.8822203  37.3063922  54.5990842
  19.9463530  38.1678753  54.1868239  19.8189324  36.6937924  53.8663200
  19.3574476  39.3787055  58.2463876  19.9846515  38.9964132  58.8601400
  18.5002395  39.1601257  58.6119568  29.7568584  49.7850030  59.8517611
  30.3008488  50.3979988  59.3572566  29.1755429  50.3429608  60.3684624
  28.0426097  52.9070748  50.9832639  27.9177237  52.1060488  50.4743584
  28.7005189  53.4016941  50.4946609  19.6634266  39.2619480  50.1609779
  18.9420851  39.8755448  50.0217253  20.4527521  39.7977245  50.0826425
  30.1061006  50.7079768  52.6112189  29.1591341  50.5885119  52.5390516
  30.4543779  49.8202266  52.6938451  22.4660579  36.5973907  56.4350431
  22.9894981  36.8436203  57.1976740  22.2472912  37.4293942  56.0153568
  27.1107439  50.5032484  48.8116541  26.9632402  49.5749192  48.9924111
  27.9360933  50.5252575  48.3273617  30.7141561  51.3261043  49.8981414
  31.6388108  51.1203904  49.7605865  30.5456864  51.0777444  50.8070756
  23.6713124  37.5387602  54.1200101  23.3309945  36.7395415  54.5220781
  22.9652130  37.8389313  53.5476935  24.3229596  34.6236914  52.5727425
  25.1455665  34.1497393  52.4506315  24.5667660  35.4027398  53.0726111
  21.8468175  41.3156035  50.3819403  21.7012756  41.6296338  51.2743685
  21.3693378  41.9340935  49.8290302  23.7064558  38.3058583  50.4300293
  23.6926126  37.4099676  50.0932591  24.4236986  38.3129247  51.0638579
  25.5590688  38.7395923  52.4753420  25.3008466  39.6612994  52.4737751
  25.0275729  38.3426358  53.1653884  30.5036877  51.8446710  45.2543506
  30.6773755  51.2793133  44.5017358  30.9965768  52.6447605  45.0722995
  16.3213837  43.8561379  53.3207064  15.7767305  44.6321187  53.4527339
  17.1993187  44.2032184  53.1626186  31.4912050  51.1613475  42.3540404
  32.1862954  51.7820167  42.5727718  31.8335200  50.3108826  42.6292782
  17.1079859  42.9831276  56.2137221  16.3661595  43.1313911  56.8001852
  16.7872603  43.2439541  55.3503971  25.0523521  52.5247254  56.0117611
  25.3610648  52.2796401  56.8840311  25.8499003  52.7293892  55.5236481
  25.0744133  54.6785164  48.2422988  24.6349124  54.1861542  48.9355844
  25.8252250  54.1358131  48.0015063  17.5536472  50.8696704  48.2447616
  18.3794492  50.5700476  47.8646259  17.2030524  50.1004327  48.6937404
  22.5218006  50.2223173  50.3145289  21.8998015  49.5593878  50.0147517
  23.1922873  50.2484304  49.6318937  15.7545078  48.7883031  49.2036549
  14.9176986  48.3605205  49.0220551  15.7268723  48.9815474  50.1407341
  22.5942533  38.7004961  59.9077795  22.6430689  39.5767083  59.5255565
  23.1365047  38.1582354  59.3349439  33.0797379  49.2446084  59.1878933
  32.2892923  49.2270223  58.6483432  32.8430733  49.7834378  59.9427969
  33.1995254  46.0938550  56.5011661  33.2493259  45.9288558  57.4427184
  33.0909177  45.2265809  56.1109542  22.0831513  48.7727096  43.7903750
  22.2319633  49.4562560  43.1370423  22.8897956  48.7532186  44.3053206
  30.4899016  42.0769478  57.8170968  31.3908879  41.9375943  57.5254966
  30.5646991  42.2423933  58.7569145  24.8241822  39.4536333  56.6624154
  23.9545131  39.7469899  56.3906743  25.0601302  40.0376778  57.3831418
  34.7013451  48.5135492  56.7453683  34.4098259  48.8765472  57.5817144
  34.0885582  47.8002500  56.5667015  32.9500639  43.6368106  55.2133741
  33.4254761  43.8295753  54.4052592  32.0266204  43.6927292  54.9677124
  19.8384146  44.7992274  44.7964819  19.5930187  43.8954604  44.9945029
  20.0080060  44.8009424  43.8544297  27.5280855  35.6715950  54.1789574
  28.0462799  36.4076977  53.8536063  27.1735988  35.9779943  55.0136334
  25.5826918  51.2675226  41.2615497  25.0100885  51.8865414  40.8085969
  26.1559712  51.8174588  41.7955419  31.6502308  40.5133866  53.4462046
  32.6019731  40.6131964  53.4674270  31.4805758  39.7212135  53.9560131
  29.6716687  37.5989450  53.6321447  29.0766620  37.8794462  52.9367936
  29.3866384  38.0883351  54.4038188  28.8024178  51.5512377  42.3924080
  29.7354851  51.4857938  42.5956955  28.7147391  52.3868643  41.9338612
  31.4312195  50.8678247  39.3528027  31.3525826  50.5338110  40.2463785
  32.2521861  51.3600015  39.3519500  34.1290386  43.7339986  52.5604346
  34.0966706  42.7955987  52.7464030  34.7391009  43.8124023  51.8270171
  25.8512409  46.6553785  60.0632207  26.7715419  46.8332384  60.2572253
  25.8161992  45.7109831  59.9111906  15.0694574  41.8492379  48.9885481
  14.7497358  40.9957687  48.6959855  14.5228002  42.0640957  49.7443449
  18.8474482  44.5654820  52.7054988  19.0660491  45.4971928  52.7243022
  19.2600255  44.2062794  53.4909792  23.7202347  40.1388026  62.0957737
  23.6199074  41.0882383  62.0269828  23.5023889  39.8106265  61.2233807
  14.9382834  45.4695290  50.9578603  14.2446306  45.0549243  50.4448557
  15.6855825  45.5115827  50.3612022  23.5833617  43.5685165  60.9122799
  23.1000699  44.3685525  61.1186688  23.6694556  43.5793109  59.9590243
  16.8519577  45.4013544  48.8344618  16.8290265  45.5001231  47.8826501
  17.1620213  46.2478695  49.1561784  19.5106955  47.4589699  52.9491232
  20.4650208  47.4273642  52.8821164  19.3119478  46.9980323  53.7641458
  20.1006337  46.0290815  55.5162030  20.9199226  46.5234894  55.5396867
  20.3743144  45.1122783  55.4879598  17.8657183  53.0009319  49.9661430
  17.7311651  52.2409720  49.3999428  17.4489246  53.7250219  49.4990219
  29.0016146  48.1846242  38.9738006  29.7051996  48.3896245  39.5895661
  28.2778795  48.7523004  39.2387089  21.0226309  53.8978636  50.1779873
  20.9058693  54.8424068  50.0758563  20.2018755  53.5952197  50.5665672
  15.3541251  40.3628949  56.2154227  16.0000115  39.8527903  56.7041452
  15.1458402  41.0997631  56.7897652  27.8794643  47.4309797  61.7146368
  28.7485803  47.6050449  61.3533003  27.4001395  48.2504213  61.5922097
  22.0480823  54.5506898  53.3935801  22.9508070  54.5830508  53.7102296
  21.8218193  53.6207349  53.4082137  23.8034425  53.3037884  50.0545880
  22.8530056  53.3039746  49.9410252  24.1066911  52.5570619  49.5381915
  19.6938742  37.5096566  60.3129241  20.5570203  37.1533371  60.5232566
  19.1204153  37.1710461  61.0004646  39.5387119  59.1398423  51.1191642
  40.1765529  59.0205170  50.4154982  39.4207962  60.0879267  51.1779594
  36.3476825  59.0925851  51.0553167  36.0095337  58.9766915  50.1673702
  37.2166593  58.6917016  51.0354173  32.2063641  60.9461327  47.0450058
  31.6428506  60.8551264  46.2766346  32.0916036  60.1261232  47.5252551
  36.8296608  60.2460702  57.0139373  36.8185249  59.8513501  56.1419876
  36.9917248  59.5126775  57.6073144  29.7528073  62.4412519  49.8834278
  30.5449365  62.1003343  49.4680578  29.9924723  62.5507494  50.8036432
  37.7863200  64.6132295  42.3564523  37.1351179  65.1986375  41.9698537
  38.5807562  65.1438490  42.4159560  31.7118827  61.7021432  42.7551657
  32.4849703  61.1550419  42.6164533  32.0644226  62.5665681  42.9666119
  33.5503869  63.0297814  55.9618557  33.2593735  63.9343445  55.8465223
  34.1860854  63.0714342  56.6762626  34.4760076  60.4074663  52.5519916
  35.0723648  60.1830685  51.8376879  34.5335048  59.6659408  53.1545364
  34.0485104  57.8614098  40.3870107  34.3010625  57.3395619  39.6253570
  33.1109664  57.6980244  40.4896791  39.0928387  56.8649876  48.1944850
  39.8791477  56.4469300  47.8435267  39.3567092  57.7695969  48.3626499
  39.2638465  62.3022727  42.8933507  38.6284298  62.3757353  43.6054412
  38.9335871  62.8916326  42.2152586  44.4936814  56.8025110  49.0977829
  45.2261986  56.2324326  49.3315658  43.7376170  56.4146710  49.5384334
  33.7681393  59.7642204  42.5894482  33.6517651  59.0887107  43.2575566
  33.8783653  59.2774578  41.7726635  36.1112934  59.2252351  46.2941171
  35.7471141  58.6982972  47.0054093  36.9680050  58.8350820  46.1207657
  42.0162235  50.5146684  53.5572437  41.6845560  51.3842095  53.3333652
  41.4207848  50.1982968  54.2366468  38.5093754  62.7159230  52.9568350
  38.2094477  63.6184269  52.8484157  38.1644814  62.4491413  53.8089503
  31.9606236  59.1673027  48.9905055  31.0356732  59.0349241  49.1982746
  32.2090649  59.9467246  49.4874997  41.9090898  55.2341770  50.6365788
  41.0007775  55.1657178  50.3424549  41.8578494  55.7113715  51.4647613
  29.3215047  58.8106300  49.8248844  29.4507428  59.0640779  50.7388255
  28.6412498  59.4034008  49.5053499  33.4914534  69.4803550  45.9239318
  33.4138564  70.4311375  46.0027798  32.8876178  69.1349423  46.5814244
  35.9831764  56.6531416  58.5800685  35.2065098  57.2125336  58.5703549
  36.6222327  57.1388198  59.1015555  43.7752545  53.4358208  52.4143661
  43.1326925  53.7290741  51.7683456  43.2707473  53.3211129  53.2196858
  34.2378136  59.4616869  58.1418652  34.9792821  60.0001913  57.8653475
  33.5315122  60.0883158  58.2990204  39.7133476  61.6046009  56.7390813
  40.1216832  61.1628420  55.9945446  38.9910737  61.0298637  56.9925006
  36.0664546  56.5418616  54.1124370  36.9125741  56.9658030  54.2559019
  36.0063184  55.8852240  54.8062933  40.0362290  62.1647200  50.4943102
  39.4071153  62.3292914  49.7919170  39.6487953  62.5788810  51.2654066
  43.9151522  63.1001638  47.8487466  43.2302561  63.4800539  47.2984499
  43.9995372  63.7096964  48.5819414  39.2163991  54.2022984  55.7705544
  38.9724923  54.9565045  55.2339820  39.4923922  54.5808332  56.6052791
  41.1702454  60.7461597  54.4482809  41.3819349  61.3893357  53.7717191
  41.1232202  59.9123913  53.9804740  38.7728683  53.3579417  51.3519382
  37.9113162  53.6560671  51.6436119  38.7991118  53.5749816  50.4200414
  35.5890252  61.9021608  47.7593187  36.0528598  62.1809311  46.9697810
  35.3247050  61.0005053  47.5766278  32.4814333  61.4493090  50.6972951
  33.0515690  61.8780358  50.0590435  33.0722445  61.1675674  51.3957136
  34.5259138  58.0244760  44.5682752  35.2283182  58.4765804  45.0356679
  34.1939767  57.3828579  45.1962646  32.9739500  56.6156517  58.9433962
  32.3438161  57.2972798  59.1769359  32.8675588  56.5039599  57.9987100
  28.2684472  56.2828313  49.8699886  27.4783526  56.5385842  49.3939997
  28.7595720  57.0976651  49.9751927  42.2848282  63.6233552  52.6205167
  43.1065726  63.2213740  52.3387848  42.2810685  63.5201786  53.5721283
  30.2199218  56.6472892  46.8283363  29.4230381  56.7591587  47.3466858
  29.9924810  56.9859545  45.9624253  36.0504885  63.1717596  54.7765877
  36.1149318  63.6338003  55.6124049  35.3415809  62.5414960  54.9048187
  26.5522175  56.5358804  52.3014877  26.8030214  57.4205813  52.5672453
  27.0881724  56.3563405  51.5289969  50.3754275  59.9672301  48.9690138
  49.6217983  59.3979699  48.8134143  50.5101816  59.9334965  49.9160773
  35.7652903  64.8385703  44.6444858  35.6298578  65.6837239  45.0729705
  36.3062716  65.0404981  43.8810791  32.2520243  50.9177283  61.3059213
  31.8587188  50.3643481  61.9806857  33.0686383  51.2287861  61.6965730
  29.2182300  62.3561141  45.2172783  29.7306821  63.1504391  45.3678347
  29.8705013  61.6587432  45.1506384  31.0277185  65.4726897  47.2995536
  31.2043813  66.3944862  47.1116520  31.8234019  65.1585317  47.7289916
  35.1688204  52.3335162  58.8979469  35.9097917  52.9342315  58.8183932
  35.4006126  51.5912800  58.3397512  30.3129542  57.5191529  57.1757699
  30.1983057  56.6176786  57.4764798  29.4574059  57.7655226  56.8242516
  37.3921379  65.4609270  58.7745200  36.9485234  64.6745648  58.4566104
  38.0538593  65.6488420  58.1089091  32.1508501  66.9905071  53.3005878
  32.7015926  66.8622134  52.5282872  31.3119976  67.2899960  52.9500771
  39.4902617  65.7412069  56.8026601  39.4721093  66.5620951  56.3106870
  40.4122538  65.6166145  57.0276742  35.9475672  63.2556199  57.6450109
  36.4804008  62.4944487  57.4149417  35.4189753  62.9629851  58.3874264
  39.1145367  48.3616265  53.1743751  38.7709636  49.2517907  53.0982862
  39.4824329  48.1717923  52.3113336  27.1831217  60.6849795  45.9932353
  28.0206439  61.0946804  45.7766061  27.3609485  59.7449238  45.9632547
  38.1941907  50.7320920  51.1392984  37.6906703  50.6951055  50.3260790
  38.4872514  51.6413663  51.1989641  34.4384793  50.8159650  50.1459166
  35.3037790  50.6202458  49.7865056  34.5062302  50.5870002  51.0728523
  44.0529923  61.1057231  43.6169360  43.2759366  60.7668390  43.1724522
  44.7321404  61.1109854  42.9424325  37.3128384  62.3842191  45.1568921
  36.7849746  61.6494951  44.8442159  36.8115887  63.1616868  44.9108890
  42.2921230  60.5791212  50.2735968  41.6344905  61.2690473  50.3616096
  43.0961630  60.9687644  50.6169954  32.0447112  53.0461858  47.5175533
  32.6190864  52.8237039  46.7848726  32.6318094  53.1150552  48.2704134
  41.1026689  58.9335585  48.3239909  41.6158571  59.5665576  48.8261619
  41.7527913  58.3336780  47.9583269  32.3716699  55.0766319  41.5371418
  31.5354011  55.4141005  41.8580693  32.2321469  54.9415299  40.5998555
  35.4580985  60.2022402  38.1603894  34.5508046  59.9711655  38.3595043
  35.9552017  59.4060021  38.3477876  38.3649063  68.9119909  41.0800581
  37.6910762  69.2151606  41.6885538  38.7514885  69.7148989  40.7306038
  37.5807520  56.4085040  50.5698250  36.6630081  56.6299987  50.4119938
  37.9967664  56.4831351  49.7109957  38.3642568  57.8076456  45.7000930
  39.1114387  58.3197853  45.3908052  38.6334157  57.4860509  46.5605324
  36.6369218  60.3034997  42.6827885  35.7280437  60.0194029  42.7800354
  36.6664302  60.7234075  41.8231191  41.8688485  63.9141586  46.4519052
  41.4150812  63.0732496  46.5084243  41.2382452  64.5502984  46.7893832
  40.3121425  65.7518083  47.3868870  40.6044399  66.3123140  46.6681236
  40.8220045  66.0446644  48.1422029  27.2057388  58.0240511  46.6643087
  27.0081788  57.4309871  45.9394153  26.6504052  57.7192721  47.3819026
  35.1854112  57.9163617  48.7837680  35.2402722  56.9637454  48.7080156
  34.3745314  58.0723056  49.2678978  36.3345306  61.8443740  40.0215963
  35.8964736  61.1279599  39.5621600  37.0755747  62.0719855  39.4601054
  33.1246472  56.5340677  46.5428059  32.3114337  56.8334847  46.9493251
  33.6205466  56.1396366  47.2602541  35.2755050  66.5298434  48.4762323
  35.2331229  66.7559280  47.5470855  36.1917749  66.2961808  48.6248125
  38.7220684  56.9982501  55.3742953  39.0770071  57.2253975  56.2337418
  39.3692815  57.3300878  54.7520208  44.4518421  60.1200937  46.0792282
  44.3136319  60.3102533  45.1513471  44.0954639  60.8820320  46.5360333
  32.6160547  54.1059032  52.1589294  33.2559926  53.9647792  51.4612257
  31.7838077  53.8193546  51.7827896  44.4787800  62.1877464  51.0903553
  44.9124307  62.0952753  51.9386607  45.1919381  62.1634965  50.4523569
  33.3920851  63.4061463  48.2724286  34.1861449  62.9111783  48.0706861
  32.6812543  62.8779326  47.9091992  38.2115695  65.7879558  52.6236654
  38.2652717  66.3570495  53.3914370  37.3430476  65.9581443  52.2590691
  29.7003614  57.5504545  44.3484039  28.7701202  57.4889000  44.5654001
  29.7961086  57.0280497  43.5520680  29.6189163  54.0759357  46.9362280
  29.8795980  54.9904691  46.8271441  30.4406335  53.6083800  47.0858893
  31.0914088  55.4897115  54.1061105  31.7637142  55.2814477  53.4573754
  30.2643875  55.2919201  53.6666337  45.3403350  62.2301165  53.6236439
  45.5339240  63.1346975  53.8695713  45.2403968  61.7708584  54.4575024
  36.9939660  52.1159056  56.1226766  36.3467575  52.8149005  56.0291242
  37.7640676  52.5495199  56.4903014  40.4018458  62.3807908  59.1977319
  40.2503965  62.1518459  58.2807403  40.3923138  63.3378509  59.2108664
  37.1703795  59.9539820  54.1823586  38.0995855  60.1050980  54.0092553
  36.7494825  60.0423841  53.3272232  35.9692127  63.9790485  51.9522123
  35.8303212  63.6109269  52.8248061  35.1806723  64.4938124  51.7806081
  36.5640279  69.0799581  43.2947660  36.7392034  68.6087624  44.1093282
  35.8773067  69.7065348  43.5228920  37.5197342  63.3572088  49.3410961
  37.1847174  63.3172858  50.2368611  37.0201287  62.6916803  48.8681371
  31.4941586  58.7639718  54.8663542  31.3561384  58.0319956  55.4675081
  32.4046509  58.6748618  54.5847730  40.4556533  60.7028122  39.6148021
  39.8385704  59.9774950  39.5181073  39.9873022  61.4637482  39.2715095
  34.1223886  58.4759677  54.3547222  34.8323505  57.8352869  54.3133840
  34.0793195  58.7272572  55.2773403  42.1110665  65.4127030  57.2753801
  42.0523211  64.7286250  56.6084384  42.5130183  66.1546020  56.8234427
  32.8352820  55.4624895  56.1742861  32.2990177  55.0115633  56.8264458
  32.2469529  55.5970804  55.4313326  32.2455079  54.9213546  38.7369325
  31.3684546  54.8002347  38.3731572  32.7212832  54.1299624  38.4848214
  42.1128072  63.3766614  55.5067781  41.2254851  63.0392536  55.6294180
  42.6826623  62.6449645  55.7436546  23.7657219  59.7090706  48.8310832
  24.4528259  59.3952436  48.2431847  23.6105348  60.6132071  48.5578084
  28.5691942  54.5980902  53.2595856  28.4850130  53.9906572  52.5246266
  27.7474648  55.0889921  53.2605352  35.6429226  68.0368067  52.4729024
  35.5699397  68.8423038  52.9848328  35.2006619  68.2360032  51.6477045
  35.4319005  67.2739837  45.9831845  34.6486527  67.8161517  46.0770070
  36.1311750  67.7913816  46.3826087  46.5945413  58.7874832  50.2684342
  46.5835289  59.6699547  49.8978275  45.7262792  58.4346382  50.0738879
  38.1027909  67.9354901  54.6287183  38.8155881  68.5702365  54.5563084
  37.6117938  68.0318767  53.8127184  39.8245436  61.8406153  46.2004474
  38.8901715  61.9607616  46.0309179  40.0022105  60.9378620  45.9364484
  35.3250624  55.2251849  48.3537735  34.9548412  54.6722889  49.0418641
  35.8209717  54.6209982  47.8012735  43.2117987  57.6823473  46.7354508
  43.6778440  58.5151464  46.6614811  43.6625488  57.2168454  47.4399767
  33.1539823  65.6849344  55.4492753  33.8549282  66.3185827  55.6022148
  32.6834938  66.0264076  54.6888393  41.2794219  64.0267294  43.7340660
  41.5554062  63.9123888  44.6434534  40.4098717  63.6284779  43.6952834
  41.1834650  50.0504059  50.7745410  40.2697730  50.2808286  50.9427617
  41.6127752  50.1342504  51.6259442  40.9541109  58.2393951  53.2745304
  40.3012559  58.4869859  52.6197756  41.3321489  57.4258090  52.9407781
  37.9148283  68.2753645  47.3773474  38.0970677  67.4575301  47.8401226
  38.7381269  68.4921337  46.9398364  38.2490448  67.2021830  44.6388523
  38.7778215  66.6914284  44.0258685  38.5118668  66.8864360  45.5034056
  37.0028682  58.9813763  59.7611341  36.3269319  58.8807892  60.4313716
  37.8256316  58.8252976  60.2247338  28.7507541  65.2185699  52.3823856
  29.3360978  64.4729387  52.5151760  28.5532379  65.5289656  53.2660520
  31.6046196  68.2536946  47.3986298  30.9356571  68.7383074  46.9150339
  31.4659066  68.5006167  48.3129677  23.3425196  57.7891299  51.1028299
  23.3809295  57.2554890  51.8965417  22.8365488  57.2626505  50.4839276
  35.7451465  70.2880690  53.9968957  36.2969773  70.4512311  54.7618042
  36.0857658  70.8785128  53.3248982  30.1968230  54.7078972  58.2463876
  30.8240269  54.3256050  58.8601400  29.3396149  54.4893174  58.6119568
  40.5962339  65.1141947  59.8517611  41.1402243  65.7271906  59.3572566
  40.0149184  65.6721526  60.3684624  26.9733773  56.5155401  44.1782231
  27.2687214  55.6066080  44.1249284  26.0721809  56.4943141  43.8563233
  38.8819852  68.2362665  50.9832639  38.7570991  67.4352405  50.4743584
  39.5398943  68.7308859  50.4946609  30.5028020  54.5911398  50.1609779
  29.7814606  55.2047366  50.0217253  31.2921276  55.1269163  50.0826425
  40.9454760  66.0371686  52.6112189  39.9985096  65.9177037  52.5390516
  41.2937533  65.1494184  52.6938451  33.3054334  51.9265824  56.4350431
  33.8288735  52.1728121  57.1976740  33.0866667  52.7585859  56.0153568
  28.7021615  54.1969499  44.3021556  28.3734321  53.3166878  44.1196662
  29.0560985  54.1417168  45.1897945  37.9501194  65.8324402  48.8116541
  37.8026156  64.9041109  48.9924111  38.7754687  65.8544493  48.3273617
  31.8163438  54.4842469  44.6697033  32.1559510  55.0128390  43.9475642
  32.2635558  54.8222875  45.4455600  41.5535315  66.6552961  49.8981414
  42.4781863  66.4495822  49.7605865  41.3850619  66.4069362  50.8070756
  34.5106879  52.8679520  54.1200101  34.1703699  52.0687333  54.5220781
  33.8045885  53.1681230  53.5476935  35.1623351  49.9528832  52.5727425
  35.9849420  49.4789310  52.4506315  35.4061414  50.7319316  53.0726111
  33.8031585  52.9817090  42.8690326  34.5239948  53.3598343  42.3654043
  33.1796889  53.7005967  42.9725304  32.6861929  56.6447953  50.3819403
  32.5406510  56.9588256  51.2743685  32.2087133  57.2632853  49.8290302
  34.5458312  53.6350501  50.4300293  34.5319881  52.7391594  50.0932591
  35.2630740  53.6421164  51.0638579  36.3984443  54.0687841  52.4753420
  36.1402221  54.9904912  52.4737751  35.8669483  53.6718275  53.1653884
  41.3430632  67.1738628  45.2543506  41.5167509  66.6085050  44.5017358
  41.8359523  67.9739523  45.0722995  27.1607591  59.1853297  53.3207064
  26.6161060  59.9613105  53.4527339  28.0386941  59.5324102  53.1626186
  47.1970023  59.9375051  46.8733805  47.6401169  59.1882376  46.4752929
  46.3196533  59.9285187  46.4907537  42.3305804  66.4905392  42.3540404
  43.0256709  67.1112085  42.5727718  42.6728954  65.6400744  42.6292782
  27.9473613  58.3123193  56.2137221  27.2055349  58.4605829  56.8001852
  27.6266358  58.5731459  55.3503971  44.2297227  63.9405098  43.8827735
  44.7548551  64.2792371  43.1577055  44.1419580  63.0052113  43.6990869
  35.8917276  67.8539172  56.0117611  36.2004402  67.6088318  56.8840311
  36.6892758  68.0585810  55.5236481  35.9137888  70.0077081  48.2422988
  35.4742878  69.5153460  48.9355844  36.6646005  69.4650049  48.0015063
  28.3930227  66.1988622  48.2447616  29.2188247  65.8992394  47.8646259
  28.0424279  65.4296244  48.6937404  33.3611760  65.5515090  50.3145289
  32.7391769  64.8885795  50.0147517  34.0316627  65.5776222  49.6318937
  26.5938832  64.1174949  49.2036549  25.7570740  63.6897123  49.0220551
  26.5662477  64.3107392  50.1407341  33.4336288  54.0296878  59.9077795
  33.4824443  54.9059001  59.5255565  33.9758802  53.4874271  59.3349439
  43.9191133  64.5738002  59.1878933  43.1286677  64.5562140  58.6483432
  43.6824488  65.1126295  59.9427969  44.0389008  61.4230468  56.5011661
  44.0887013  61.2580475  57.4427184  43.9302932  60.5557727  56.1109542
  32.9225267  64.1019014  43.7903750  33.0713387  64.7854478  43.1370423
  33.7291711  64.0824104  44.3053206  41.3292771  57.4061396  57.8170968
  42.2302634  57.2667861  57.5254966  41.4040745  57.5715851  58.7569145
  35.6635576  54.7828251  56.6624154  34.7938885  55.0761817  56.3906743
  35.8995056  55.3668696  57.3831418  45.5407205  63.8427409  56.7453683
  45.2492013  64.2057390  57.5817144  44.9279336  63.1294418  56.5667015
  46.7402887  61.4080289  49.2656253  47.5749779  61.8470093  49.4293813
  46.8762016  60.9318942  48.4464499  43.7894393  58.9660024  55.2133741
  44.2648515  59.1587670  54.4052592  42.8659959  59.0219210  54.9677124
  30.6777900  60.1284191  44.7964819  30.4323942  59.2246521  44.9945029
  30.8473815  60.1301342  43.8544297  38.3674610  51.0007868  54.1789574
  38.8856554  51.7368895  53.8536063  38.0129743  51.3071861  55.0136334
  29.9473548  55.8612549  42.2950980  29.2542793  55.9356904  41.6391016
  29.7025299  55.0972892  42.8172497  36.4220673  66.5967144  41.2615497
  35.8494640  67.2157331  40.8085969  36.9953466  67.1466506  41.7955419
  42.4896062  55.8425784  53.4462046  43.4413485  55.9423882  53.4674270
  42.3199513  55.0504053  53.9560131  40.5110442  52.9281367  53.6321447
  39.9160374  53.2086380  52.9367936  40.2260139  53.4175268  54.4038188
  39.6417932  66.8804294  42.3924080  40.5748606  66.8149856  42.5956955
  39.5541145  67.7160561  41.9338612  42.2705949  66.1970165  39.3528027
  42.1919581  65.8630028  40.2463785  43.0915616  66.6891932  39.3519500
  44.9684140  59.0631904  52.5604346  44.9360460  58.1247905  52.7464030
  45.5784764  59.1415941  51.8270171  45.1178629  55.8542947  52.6062629
  44.6017677  55.0701404  52.4192558  46.0018577  55.5261664  52.7709148
  50.7860690  60.1247911  51.7010383  51.5164079  59.8633199  52.2618086
  50.1767636  59.3876633  51.7412451  48.8675987  58.2655773  52.2984834
  48.1409151  58.1311738  51.6901325  48.4523274  58.5732602  53.1041552
  36.6906164  61.9845703  60.0632207  37.6109173  62.1624302  60.2572253
  36.6555747  61.0401748  59.9111906  25.9088329  57.1784297  48.9885481
  25.5891113  56.3249605  48.6959855  25.3621757  57.3932875  49.7443449
  29.6868236  59.8946738  52.7054988  29.9054246  60.8263845  52.7243022
  30.0994010  59.5354712  53.4909792  34.5596101  55.4679943  62.0957737
  34.4592828  56.4174300  62.0269828  34.3417644  55.1398182  61.2233807
  25.7776589  60.7987208  50.9578603  25.0840060  60.3841161  50.4448557
  26.5249580  60.8407745  50.3612022  34.4227372  58.8977082  60.9122799
  33.9394453  59.6977442  61.1186688  34.5088311  58.9085027  59.9590243
  27.6913331  60.7305462  48.8344618  27.6684019  60.8293149  47.8826501
  28.0013968  61.5770613  49.1561784  30.3500709  62.7881617  52.9491232
  31.3043963  62.7565559  52.8821164  30.1513233  62.3272241  53.7641458
  30.9400091  61.3582733  55.5162030  31.7592980  61.8526812  55.5396867
  31.2136899  60.4414701  55.4879598  28.7050938  68.3301236  49.9661430
  28.5705406  67.5701637  49.3999428  28.2883000  69.0542136  49.4990219
  39.8409901  63.5138160  38.9738006  40.5445751  63.7188162  39.5895661
  39.1172550  64.0814922  39.2387089  40.6707711  59.2648021  45.0940276
  40.6142912  59.7216573  44.2547908  41.2236054  58.5038706  44.9163118
  48.7924855  57.7933826  48.4261687  48.2324413  57.8627016  49.1993249
  48.1868358  57.6174811  47.7061183  31.8620064  69.2270553  50.1779873
  31.7452448  70.1715986  50.0758563  31.0412510  68.9244115  50.5665672
  41.7496598  63.9520689  41.0236466  42.5842202  63.5201888  40.8413940
  41.5880941  63.7802703  41.9513360  41.4042490  60.4552802  42.3892805
  41.3491294  60.2897074  41.4481249  40.7788546  61.1628835  42.5454995
  26.1935005  55.6920867  56.2154227  26.8393869  55.1819821  56.7041452
  25.9852157  56.4289548  56.7897652  38.7188398  62.7601714  61.7146368
  39.5879557  62.9342367  61.3533003  38.2395149  63.5796131  61.5922097
  32.8874578  69.8798815  53.3935801  33.7901825  69.9122426  53.7102296
  32.6611948  68.9499266  53.4082137  34.6428180  68.6329802  50.0545880
  33.6923811  68.6331663  49.9410252  34.9460666  67.8862536  49.5381915
  30.5332496  52.8388484  60.3129241  31.3963958  52.4825289  60.5232566
  29.9597907  52.5002379  61.0004646  50.3780873  74.4690340  51.1191642
  51.0159283  74.3497088  50.4154982  50.2601716  75.4171184  51.1779594
  47.1870580  74.4217768  51.0553167  46.8489091  74.3058833  50.1673702
  48.0560348  74.0208933  51.0354173  43.0457395  76.2753245  47.0450058
  42.4822260  76.1843182  46.2766346  42.9309790  75.4553149  47.5252551
  45.3153831  75.7366580  52.5519916  45.9117403  75.5122603  51.8376879
  45.3728802  74.9951326  53.1545364  44.8878859  73.1906016  40.3870107
  45.1404380  72.6687537  39.6253570  43.9503418  73.0272161  40.4896791
  49.9322142  72.1941794  48.1944850  50.7185231  71.7761217  47.8435267
  50.1960846  73.0987886  48.3626499  55.3330569  72.1317027  49.0977829
  56.0655741  71.5616244  49.3315658  54.5769925  71.7438628  49.5384334
  44.6075148  75.0934122  42.5894482  44.4911406  74.4179025  43.2575566
  44.7177408  74.6066496  41.7726635  46.9506689  74.5544269  46.2941171
  46.5864896  74.0274890  47.0054093  47.8073805  74.1642738  46.1207657
  52.8555989  65.8438601  53.5572437  52.5239314  66.7134012  53.3333652
  52.2601603  65.5274885  54.2366468  46.5912176  69.5834168  41.2902520
  46.7586578  70.4514405  41.6572991  46.4009345  69.7461450  40.3663809
  42.7999990  74.4964944  48.9905055  41.8750487  74.3641158  49.1982746
  43.0484403  75.2759163  49.4874997  52.7484653  70.5633688  50.6365788
  51.8401530  70.4949096  50.3424549  52.6972248  71.0405633  51.4647613
  46.5701397  72.0391826  42.2749187  46.4501022  72.4848877  43.1134667
  45.8753985  72.3877144  41.7162725  40.1608801  74.1398218  49.8248844
  40.2901182  74.3932697  50.7388255  39.4806253  74.7325926  49.5053499
  54.6146299  68.7650126  52.4143661  53.9720679  69.0582659  51.7683456
  54.1101228  68.6503046  53.2196858  52.2686463  72.5113299  43.1029521
  53.1804319  72.7440686  42.9277218  51.7596110  73.0950343  42.5404599
  46.9058300  71.8710534  54.1124370  47.7519496  72.2949947  54.2559019
  46.8456938  71.2144158  54.8062933  49.6122437  68.6871335  51.3519382
  48.7506916  68.9852589  51.6436119  49.6384872  68.9041734  50.4200414
  46.4284007  77.2313526  47.7593187  46.8922352  77.5101229  46.9697810
  46.1640805  76.3296970  47.5766278  45.3652893  73.3536678  44.5682752
  46.0676936  73.8057722  45.0356679  45.0333521  72.7120497  45.1962646
  39.1078227  71.6120231  49.8699886  38.3177281  71.8677759  49.3939997
  39.5989474  72.4268569  49.9751927  41.0592972  71.9764810  46.8283363
  40.2624136  72.0883504  47.3466858  40.8318564  72.3151462  45.9624253
  37.3915930  71.8650721  52.3014877  37.6423968  72.7497731  52.5672453
  37.9275478  71.6855323  51.5289969  41.1523296  72.8483447  57.1757699
  41.0376811  71.9468704  57.4764798  40.2967814  73.0947144  56.8242516
  49.9539121  63.6908183  53.1743751  49.6103390  64.5809824  53.0982862
  50.3218084  63.5009840  52.3113336  49.9189404  73.6816794  41.6816186
  49.4036027  74.4521398  41.9204574  49.6466712  73.0081930  42.3049248
  47.5036515  68.5266494  46.7401425  46.6478111  68.1373345  46.5607063
  47.9163467  68.6058455  45.8801210  49.0335661  66.0612838  51.1392984
  48.5300457  66.0242973  50.3260790  49.3266268  66.9705580  51.1989641
  45.2778547  66.1451567  50.1459166  46.1431544  65.9494376  49.7865056
  45.3456056  65.9161919  51.0728523  49.7075707  71.5543886  43.5075967
  49.4025843  71.8690035  44.3586111  50.6606149  71.6325306  43.5503300
  42.8840866  68.3753775  47.5175533  43.4584618  68.1528957  46.7848726
  43.4711849  68.4442470  48.2704134  51.9420444  74.2627502  48.3239909
  52.4552325  74.8957494  48.8261619  52.5921668  73.6628698  47.9583269
  43.2110454  70.4058236  41.5371418  42.3747766  70.7432923  41.8580693
  43.0715223  70.2707216  40.5998555  45.1863534  65.2495024  46.2450602
  44.5327946  64.9344041  45.6207217  45.1444008  64.6270765  46.9710425
  46.2974739  75.5314319  38.1603894  45.3901801  75.3003573  38.3595043
  46.7945771  74.7351939  38.3477876  48.4201275  71.7376958  50.5698250
  47.5023836  71.9591905  50.4119938  48.8361418  71.8123268  49.7109957
  49.2036322  73.1368374  45.7000930  49.9508141  73.6489771  45.3908052
  49.4727912  72.8152426  46.5605324  47.4762972  75.6326914  42.6827885
  46.5674192  75.3485947  42.7800354  47.5058056  76.0525993  41.8231191
  51.6515159  70.1725490  47.6819720  50.9137916  69.6602876  48.0129962
  51.9041933  69.7325871  46.8702996  51.7526787  62.9501742  48.2761489
  52.0585664  62.0899105  47.9887404  52.4779392  63.5419362  48.0760483
  38.0451143  73.3532428  46.6643087  37.8475543  72.7601789  45.9394153
  37.4897807  73.0484639  47.3819026  46.0247866  73.2455535  48.7837680
  46.0796476  72.2929371  48.7080156  45.2139069  73.4014974  49.2678978
  47.1739060  77.1735658  40.0215963  46.7358490  76.4571517  39.5621600
  47.9149501  77.4011773  39.4601054  43.9640226  71.8632595  46.5428059
  43.1508092  72.1626765  46.9493251  44.4599221  71.4688283  47.2602541
  43.4554301  69.4350950  52.1589294  44.0953680  69.2939709  51.4612257
  42.6231832  69.1485463  51.7827896  40.5397369  72.8796462  44.3484039
  39.6094957  72.8180918  44.5654001  40.6354841  72.3572415  43.5520680
  40.4582918  69.4051275  46.9362280  40.7189735  70.3196608  46.8271441
  41.2800090  68.9375718  47.0858893  41.9307843  70.8189032  54.1061105
  42.6030896  70.6106394  53.4573754  41.1037629  70.6211118  53.6666337
  47.8333415  67.4450973  56.1226766  47.1861330  68.1440923  56.0291242
  48.6034430  67.8787117  56.4903014  42.3335340  74.0931635  54.8663542
  42.1955138  73.3611874  55.4675081  43.2440264  74.0040535  54.5847730
  51.2950288  76.0320040  39.6148021  50.6779458  75.3066868  39.5181073
  50.8266776  76.7929400  39.2715095  44.9617641  73.8051595  54.3547222
  45.6717259  73.1644787  54.3133840  44.9186949  74.0564489  55.2773403
  43.6746575  70.7916812  56.1742861  43.1383932  70.3407551  56.8264458
  43.0863283  70.9262721  55.4313326  43.0848834  70.2505464  38.7369325
  42.2078300  70.1294265  38.3731572  43.5606587  69.4591542  38.4848214
  39.4085696  69.9272820  53.2595856  39.3243885  69.3198490  52.5246266
  38.5868402  70.4181838  53.2605352  49.5809410  68.4126384  48.6266051
  50.0778109  67.6596346  48.3067121  48.8096391  68.4490700  48.0609260
  46.1644379  70.5543767  48.3537735  45.7942166  70.0014807  49.0418641
  46.6603471  69.9501900  47.8012735  54.0511742  73.0115390  46.7354508
  54.5172194  73.8443382  46.6614811  54.5019242  72.5460372  47.4399767
  52.0228405  65.3795977  50.7745410  51.1091485  65.6100204  50.9427617
  52.4521506  65.4634421  51.6259442  34.1818950  73.1183217  51.1028299
  34.2203050  72.5846808  51.8965417  33.6759243  72.5918422  50.4839276
  41.5609712  67.9647757  54.5990842  41.6251039  68.8262588  54.1868239
  41.4976833  67.3521759  53.8663200  41.0361985  70.0370890  58.2463876
  41.6634024  69.6547967  58.8601400  40.1789904  69.8185092  58.6119568
  37.8127528  71.8447319  44.1782231  38.1080969  70.9357998  44.1249284
  36.9115563  71.8235059  43.8563233  41.3421775  69.9203316  50.1609779
  40.6208360  70.5339283  50.0217253  42.1315030  70.4561080  50.0826425
  39.5415369  69.5261417  44.3021556  39.2128075  68.6458796  44.1196662
  39.8954740  69.4709085  45.1897945  42.6557192  69.8134387  44.6697033
  42.9953265  70.3420308  43.9475642  43.1029313  70.1514793  45.4455600
  45.3500633  68.1971437  54.1200101  45.0097454  67.3979250  54.5220781
  44.6439639  68.4973148  53.5476935  46.0017105  65.2820750  52.5727425
  46.8243174  64.8081228  52.4506315  46.2455169  66.0611233  53.0726111
  44.6425340  68.3109008  42.8690326  45.3633702  68.6890261  42.3654043
  44.0190644  69.0297885  42.9725304  48.7856462  69.0154157  43.8048659
  49.0020077  69.8978795  43.5037487  48.3050530  68.6240371  43.0754301
  43.5255684  71.9739870  50.3819403  43.3800264  72.2880173  51.2743685
  43.0480887  72.5924771  49.8290302  45.3852067  68.9642418  50.4300293
  45.3713635  68.0683512  50.0932591  46.1024495  68.9713082  51.0638579
  47.2378197  69.3979759  52.4753420  46.9795975  70.3196829  52.4737751
  46.7063238  69.0010193  53.1653884  44.7888963  67.8456799  45.6987863
  44.9104874  66.9173445  45.8978750  44.4991005  67.8595485  44.7866178
  47.6580153  65.5311709  48.8354583  47.6801850  65.5951042  47.8806562
  48.0748212  64.6916218  49.0295089  38.7867368  73.6415111  56.2137221
  38.0449104  73.7897746  56.8001852  38.4660112  73.9023377  55.3503971
  41.5171655  75.4576109  44.7964819  41.2717696  74.5538439  44.9945029
  41.6867569  75.4593259  43.8544297  49.2068364  66.3299785  54.1789574
  49.7250308  67.0660812  53.8536063  48.8523497  66.6363779  55.0136334
  40.7867302  71.1904467  42.2950980  40.0936547  71.2648821  41.6391016
  40.5419054  70.4264810  42.8172497  49.4580959  62.7500068  49.6990471
  49.7382712  62.0823257  50.3250898  50.2431565  62.9429163  49.1865135
  51.3504196  68.2573285  53.6321447  50.7554128  68.5378298  52.9367936
  51.0653893  68.7467186  54.4038188  47.6461226  73.2619875  38.6031550
  48.5920330  73.1326083  38.6719968  47.2675471  72.5234536  39.0800978
  53.6183110  64.9275881  48.5658442  53.4207931  64.6190969  49.4501774
  54.2282816  65.6537519  48.6956372  45.8304143  71.1869851  38.5386435
  44.9235598  70.8902964  38.6149149  46.1080124  70.8899669  37.6720721
  36.7482083  72.5076214  48.9885481  36.4284867  71.6541522  48.6959855
  36.2015511  72.7224792  49.7443449  47.4466208  65.7306741  44.6930676
  46.6366937  65.3853826  45.0685922  48.1350625  65.4214284  45.2818288
  49.3756757  64.8084787  46.3154973  49.9287795  65.2280241  46.9744996
  49.6126843  63.8820536  46.3577929  44.6002927  68.0456786  38.6798414
  45.4622091  68.3711684  38.9394232  44.7853271  67.2588282  38.1671480
  52.7535564  66.9185313  45.8233637  52.1734233  67.5770117  45.4411690
  52.4871497  66.0962657  45.4121055  51.2039130  66.3190370  48.0254958
  51.7038909  66.4306905  47.2169276  51.8474738  66.0151423  48.6655766
  51.5360442  69.0785403  44.8789986  50.6486297  69.3635054  44.6610180
  51.9514431  68.9179166  44.0317262  54.8874978  69.1031924  48.5944325
  55.6635368  69.5928376  48.8668942  54.1623112  69.5289978  49.0516194
  57.3247537  69.8159543  49.6518265  57.9192027  69.5755279  48.9411574
  57.3974120  69.0966674  50.2791802  51.5101466  74.5939939  45.0940276
  51.4536667  75.0508490  44.2547908  52.0629808  73.8330623  44.9163118
  55.3206271  70.3829671  45.9190395  55.0643206  69.9826306  46.7498603
  54.6959140  71.0973465  45.7940534  37.0328760  71.0212785  56.2154227
  37.6787623  70.5111738  56.7041452  36.8245911  71.7581466  56.7897652
  45.5532370  65.2852829  41.9678123  45.5411040  66.2294669  42.1246394
  46.4455792  65.1022975  41.6737584  49.3684490  61.8795606  46.2224060
  48.6016886  61.3254092  46.3680742  49.7795195  61.9517475  47.0838212
  17.8599611   5.4876710  37.8436949  18.4978021   5.3683457  37.1400289
  17.7420454   6.4357554  37.9024901  14.6689317   5.4404138  37.7798474
  14.3307829   5.3245203  36.8919009  15.5379086   5.0395303  37.7599480
  10.5276133   7.2939614  33.7695365   9.9640998   7.2029551  33.0011652
  10.4128528   6.4739519  34.2497857  15.1509100   6.5938990  43.7384679
  15.1397741   6.1991788  42.8665183  15.3129740   5.8605062  44.3318451
   8.0740565   8.7890806  36.6079585   8.8661857   8.4481631  36.1925884
   8.3137215   8.8985781  37.5281738  16.1075692  10.9610582  29.0809830
  15.4563672  11.5464662  28.6943843  16.9020055  11.4916777  29.1404867
  10.0331319   8.0499719  29.4796964  10.8062195   7.5028706  29.3409840
  10.3856718   8.9143969  29.6911425  11.8716362   9.3776101  42.6863863
  11.5806227  10.2821732  42.5710529  12.5073346   9.4192629  43.4007933
  12.7972568   6.7552950  39.2765223  13.3936141   6.5308972  38.5622186
  12.8547540   6.0137695  39.8790671  12.3697597   4.2092385  27.1115414
  12.6223117   3.6873907  26.3498877  11.4322156   4.0458531  27.2142097
  17.4140880   3.2128164  34.9190157  18.2003969   2.7947587  34.5680574
  17.6779584   4.1174256  35.0871805  17.5850957   8.6501014  29.6178814
  16.9496790   8.7235640  30.3299718  17.2548363   9.2394613  28.9397893
  22.8149307   3.1503397  35.8223136  23.5474479   2.5802614  36.0560965
  22.0588662   2.7624997  36.2629641  12.0893886   6.1120491  29.3139789
  11.9730144   5.4365395  29.9820873  12.1996145   5.6252865  28.4971942
  14.4325426   5.5730638  33.0186478  14.0683634   5.0461259  33.7299399
  15.2892542   5.1829107  32.8452963  16.8306247   9.0637517  39.6813657
  16.5306970   9.9662556  39.5729464  16.4857306   8.7969700  40.5334810
  10.2818728   5.5151314  35.7150361   9.3569225   5.3827528  35.9228053
  10.5303141   6.2945533  36.2120304  20.2303390   1.5820057  37.3611094
  19.3220268   1.5135466  37.0669855  20.1790986   2.0592002  38.1892920
  14.0520134   3.0578196  28.9994493  13.9319759   3.5035246  29.8379974
  13.3572723   3.4063513  28.4408031  11.8127026  15.8281837  32.6484625
  11.7351056  16.7789662  32.7273105  11.2088670  15.4827710  33.3059551
  14.3044256   3.0009703  45.3045991  13.5277590   3.5603623  45.2948856
  14.9434819   3.4866486  45.8260862  22.0965037  -0.2163504  39.1388968
  21.4539417   0.0769029  38.4928763  21.5919965  -0.3310584  39.9442165
  19.7505200   3.5299669  29.8274827  20.6623057   3.7627055  29.6522525
  19.2414848   4.1136713  29.2649906  12.5590628   5.8095156  44.8663958
  13.3005313   6.3480200  44.5898782  11.8527614   6.4361445  45.0235510
  18.0345968   7.9524297  43.4636120  18.4429324   7.5106707  42.7190752
  17.3123230   7.3776924  43.7170313  14.3877038   2.8896903  40.8369677
  15.2338233   3.3136317  40.9804326  14.3275676   2.2330528  41.5308240
  18.3574783   8.5125487  37.2188409  17.7283645   8.6771201  36.5164477
  17.9700445   8.9267097  37.9899373  22.2364015   9.4479925  34.5732773
  21.5515053   9.8278826  34.0229806  22.3207864  10.0575252  35.3064720
  17.5376483   0.5501272  42.4950851  17.2937415   1.3043332  41.9585126
  17.8136414   0.9286619  43.3298098  19.4914946   7.0939884  41.1728116
  19.7031842   7.7371644  40.4962497  19.4444695   6.2602201  40.7050046
  17.0941175  -0.2942295  38.0764688  16.2325654   0.0038958  38.3681426
  17.1203610  -0.0771896  37.1445721  13.9102745   8.2499895  34.4838494
  14.3741090   8.5287598  33.6943116  13.6459543   7.3483340  34.3011585
  10.8026826   7.7971377  37.4218257  11.3728183   8.2258645  36.7835742
  11.3934938   7.5153962  38.1202443  12.8471631   4.3723048  31.2928059
  13.5495674   4.8244091  31.7601985  12.5152259   3.7306867  31.9207952
  20.6060774   9.9711839  39.3450473  21.4278218   9.5692027  39.0633155
  20.6023177   9.8680074  40.2966589  14.3717378   9.5195883  41.5011184
  14.4361810   9.9816290  42.3369356  13.6628302   8.8893248  41.6293494
  28.6966767   6.3150588  35.6935445  27.9430476   5.7457986  35.5379449
  28.8314308   6.2813252  36.6406080  14.0865395  11.1863990  31.3690164
  13.9511070  12.0315526  31.7975012  14.6275208  11.3883268  30.6056098
   7.5394793   8.7039428  31.9418089   8.0519313   9.4982679  32.0923654
   8.1917506   8.0065719  31.8751691   9.3489677  11.8205185  34.0240843
   9.5256306  12.7423149  33.8361826  10.1446511  11.5063604  34.4535222
  15.7133872  11.8087557  45.4990506  15.2697726  11.0223935  45.1811411
  16.3751085  11.9966707  44.8334397  10.4720993  13.3383358  40.0251185
  11.0228418  13.2100422  39.2528179   9.6332469  13.6378247  39.6746078
  17.8115110  12.0890357  43.5271908  17.7933585  12.9099238  43.0352177
  18.7335030  11.9644432  43.7522049  14.2688164   9.6034486  44.3695416
  14.8016501   8.8422774  44.1394724  13.7402245   9.3108138  45.1119570
  17.4008142   4.7003163  28.4061493  16.8854765   5.4707768  28.6449880
  17.1285450   4.0268299  29.0294554  22.3742416   7.4535518  30.3414666
  21.5971859   7.1146677  29.8969828  23.0533897   7.4588141  29.6669631
  17.1894445   2.5730255  30.2321274  16.8844580   2.8876405  31.0831417
  18.1424887   2.6511675  30.2748607  15.6340877   8.7320479  31.8814228
  15.1062238   7.9973238  31.5687465  15.1328379   9.5095155  31.6354196
  20.6133723   6.9269499  36.9981274  19.9557397   7.6168761  37.0861403
  21.4174122   7.3165931  37.3415261  19.4239181   5.2813872  35.0485216
  19.9371063   5.9143864  35.5506926  20.0740405   4.6815067  34.6828576
  13.7793477   6.5500689  24.8849201  12.8720539   6.3189942  25.0840350
  14.2764509   5.7538308  25.0723183  16.6861556  15.2598196  27.8045887
  16.0123254  15.5629893  28.4130845  17.0727378  16.0627276  27.4551344
  15.9020012   2.7563327  37.2943557  14.9842574   2.9778274  37.1365245
  16.3180156   2.8309638  36.4355264  16.6855060   4.1554743  32.4246237
  17.4326879   4.6676140  32.1153359  16.9546650   3.8338796  33.2850630
  14.9581710   6.6513284  29.4073191  14.0492929   6.3672317  29.5045661
  14.9876794   7.0712362  28.5476498  20.1900978  10.2619873  33.1764359
  19.7363305   9.4210783  33.2329549  19.5594944  10.8981272  33.5139139
  19.1333897   1.1911859  34.4065026  18.3956654   0.6789246  34.7375269
  19.3860671   0.7512241  33.5948303  18.6333917  12.0996370  34.1114177
  18.9256891  12.6601427  33.3926542  19.1432537  12.3924931  34.8667336
  13.5066604   4.2641904  35.5082987  13.5615214   3.3115741  35.4325463
  12.6957806   4.4201344  35.9924285  14.6557798   8.1922027  26.7461270
  14.2177228   7.4757886  26.2866907  15.3968239   8.4198142  26.1846361
  13.5967542  12.8776721  35.2007630  13.5543721  13.1037567  34.2716162
  14.5130241  12.6440096  35.3493431  17.0433176   3.3460789  42.0988259
  17.3982564   3.5732262  42.9582725  17.6905307   3.6779165  41.4765515
  22.7730913   6.4679225  32.8037588  22.6348811   6.6580820  31.8758778
  22.4167132   7.2298607  33.2605639  22.8000292   8.5355752  37.8148860
  23.2336799   8.4431041  38.6631914  23.5131873   8.5113252  37.1768876
  11.7133343   9.7539750  34.9969593  12.5073941   9.2590070  34.7952168
  11.0025035   9.2257613  34.6337298  16.5328187  12.1357846  39.3481960
  16.5865210  12.7048782  40.1159676  15.6642969  12.3059731  38.9835998
  23.6615842   8.5779452  40.3481745  23.8551732   9.4825263  40.5941020
  23.5616460   8.1186871  41.1820330  18.7230951   8.7286195  45.9222626
  18.5716457   8.4996747  45.0052709  18.7135630   9.6856796  45.9353971
  15.4916287   6.3018108  40.9068892  16.4208347   6.4529267  40.7337860
  15.0707317   6.3902128  40.0517539  14.2904619  10.3268772  38.6767430
  14.1515705   9.9587556  39.5493368  13.5019215  10.8416412  38.5051388
  14.8852771  15.4277869  30.0192966  15.0604527  14.9565912  30.8338589
  14.1985559  16.0543635  30.2474227  15.8409834   9.7050375  36.0656268
  15.5059667   9.6651145  36.9613918  15.3413780   9.0395091  35.5926678
  18.7769026   7.0506409  26.3393327  18.1598196   6.3253237  26.2426380
  18.3085514   7.8115769  25.9960402  12.4436379   4.8237964  41.0792528
  13.1535997   4.1831156  41.0379147  12.4005687   5.0750859  42.0018709
  20.4323157  11.7605317  43.9999108  20.3735703  11.0764538  43.3329691
  20.8342676  12.5024307  43.5479734   9.4513856  18.5767231  36.7932827
   9.6910454  19.2085755  37.4711845   8.6083053  18.2255271  37.0798186
  20.4340565   9.7244901  42.2313087  19.5467343   9.3870823  42.3539486
  21.0039116   8.9927933  42.4681853  13.9641718  14.3846354  39.1974331
  13.8911889  15.1901325  39.7093635  13.5219111  14.5838320  38.3722352
  13.7531498  13.6218124  32.7077152  12.9699019  14.1639804  32.8015377
  14.4524243  14.1392103  33.1071393  24.9157905   5.1353119  36.9929649
  24.9047781   6.0177834  36.6223582  24.0475285   4.7824670  36.7984186
  18.1457928   8.1884440  32.9249781  17.2114207   8.3085903  32.7554485
  18.3234597   7.2856907  32.6609791  21.5330480   4.0301760  33.4599815
  21.9990932   4.8629751  33.3860118  21.9837980   3.5646741  34.1645074
  11.4752315  12.0327631  42.1738060  12.1761775  12.6664114  42.3267454
  11.0047430  12.3742363  41.4133699  19.6006711  10.3745581  30.4585967
  19.8766555  10.2602176  31.3679841  18.7311210   9.9763066  30.4198140
  19.2753601   4.5872239  39.9990610  18.6225051   4.8348146  39.3443063
  19.6533981   3.7736377  39.6653088  16.2360775  14.6231932  34.1018781
  16.4183169  13.8053588  34.5646533  17.0593761  14.8399624  33.6643671
  16.5702940  13.5500117  31.3633829  17.0990707  13.0392572  30.7503991
  16.8331160  13.2342647  32.2279362  15.3241174   5.3292050  46.4856647
  14.6481811   5.2286179  47.1559023  16.1468808   5.1731264  46.9492645
   7.0720033  11.5663986  39.1069163   7.6573470  10.8207674  39.2397067
   6.8744872  11.8767943  39.9905827   9.9258688  14.6015234  34.1231605
   9.2569064  15.0861361  33.6395645   9.7871558  14.8484454  35.0374984
  14.0663957  16.6358977  40.7214263  14.6182265  16.7990599  41.4863349
  14.4070150  17.2263415  40.0494288  18.9174831  11.4620235  46.5762918
  19.4614735  12.0750193  46.0817873  18.3361676  12.0199813  47.0929931
  16.2713686  12.1802689  35.5361848  16.1238648  11.2519396  35.7169418
  17.0967179  12.2022780  35.0518923  19.6643124  13.5216915  31.9788812
  19.8380001  12.9563338  31.2262665  20.1572015  14.3217810  31.7968302
  25.5182515   6.2853338  33.5979112  25.9613661   5.5360663  33.1998235
  24.6409025   6.2763475  33.2152844  20.6518296  12.8383680  29.0785710
  21.3469201  13.4590372  29.2973025  20.9941447  11.9879031  29.3538088
  22.5509720  10.2883385  30.6073041  23.0761044  10.6270658  29.8822361
  22.4632072   9.3530400  30.4236176  14.2129768  14.2017459  42.7362918
  14.5216895  13.9566606  43.6085617  15.0105250  14.4064097  42.2481788
  14.2350380  16.3555368  34.9668294  13.7955371  15.8631747  35.6601151
  14.9858497  15.8128336  34.7260370   6.7142719  12.5466909  34.9692922
   7.5400739  12.2470681  34.5891566   6.3636771  11.7774532  35.4182711
  11.6824252  11.8993378  37.0390596  11.0604262  11.2364083  36.7392824
  12.3529119  11.9254509  36.3564244   4.9151324  10.4653236  35.9281856
   4.0783233  10.0375410  35.7465857   4.8874970  10.6585679  36.8652647
  22.2403626  10.9216289  45.9124239  21.4499169  10.9040428  45.3728739
  22.0036980  11.4604582  46.6673276  22.3601501   7.7708755  43.2256968
  22.4099506   7.6058763  44.1672490  22.2515424   6.9036014  42.8354848
  11.2437759  10.4497301  30.5149057  11.3925880  11.1332765  29.8615729
  12.0504203  10.4302391  31.0298512  19.6505263   3.7539683  44.5416274
  20.5515126   3.6146148  44.2500272  19.7253238   3.9194138  45.4814452
  23.8619697  10.1905697  43.4698989  23.5704506  10.5535677  44.3062450
  23.2491829   9.4772705  43.2912321  25.0615380   7.7558576  35.9901559
  25.8962271   8.1948381  36.1539120  25.1974509   7.2797230  35.1709805
   8.9990392   6.4762478  31.5210125   8.7536434   5.5724808  31.7190336
   9.1686307   6.4779629  30.5789603  14.7433165  12.9445431  27.9860804
  14.1707132  13.5635618  27.5331276  15.3165959  13.4944793  28.5200726
  20.8108555   2.1904071  40.1707353  21.7625978   2.2902169  40.1919577
  20.6412005   1.3982340  40.6805437  18.8322934  -0.7240345  40.3566754
  18.2372866  -0.4435333  39.6613242  18.5472631  -0.2346444  41.1283495
  17.9630425  13.2282581  29.1169386  18.8961098  13.1628143  29.3202262
  17.8753637  14.0638848  28.6583919  20.5918441  12.5448452  26.0773334
  20.5132073  12.2108315  26.9709092  21.4128108  13.0370220  26.0764806
  23.2896632   5.4110191  39.2849652  23.2572953   4.4726192  39.4709336
  23.8997256   5.4894228  38.5515477  15.1279963   4.2806244  25.3276856
  16.0739068   4.1512452  25.3965275  14.7494208   3.5420906  25.8046285
  23.4391121   2.2021235  39.3307936  22.9230170   1.4179691  39.1437865
  24.3231070   1.8739951  39.4954455  29.1073182   6.4726198  38.4255689
  29.8376571   6.2111486  38.9863393  28.4980128   5.7354920  38.4657757
  27.1888479   4.6134061  39.0230140  26.4621643   4.4790025  38.4146632
  26.7735766   4.9210889  39.8286858  15.0118656   8.3323990  46.7877513
  15.9321665   8.5102589  46.9817560  14.9768239   7.3880036  46.6357213
   8.0080728   6.2425025  39.4300295   8.2266738   7.1742133  39.4488328
   8.4206502   5.8832999  40.2155098  12.7439864   5.2455369  47.6368105
  12.2606946   6.0455730  47.8431994  12.8300803   5.2563314  46.6835549
   6.0125823   7.0783749  35.5589925   5.9896512   7.1771436  34.6071808
   6.3226460   7.9248900  35.8807091   8.6713201   9.1359904  39.6736539
   9.6256455   9.1043846  39.6066471   8.4725725   8.6750528  40.4886765
   9.2612583   7.7061020  42.2407337  10.0805472   8.2005099  42.2642174
   9.5349391   6.7892988  42.2124904  19.0179180   0.0971773  31.6035292
  18.1305035   0.3821423  31.3855487  19.4333169  -0.0634464  30.7562569
  22.3693716   0.1218293  35.3189631  23.1454106   0.6114746  35.5914248
  21.6441850   0.5476348  35.7761501  24.8066274   0.8345913  36.3763572
  25.4010765   0.5941649  35.6656880  24.8792858   0.1153043  37.0037108
   7.0263430  14.6779524  36.6906737   6.8917898  13.9179925  36.1244735
   6.6095492  15.4020424  36.2235526  18.1622393   9.8616447  25.6983312
  18.8658243  10.0666450  26.3140968  17.4385042  10.4293209  25.9632396
  18.9920203   5.6126308  31.8185582  18.9355405   6.0694860  30.9793215
  19.5448546   4.8516993  31.6408425  22.8025009   1.4016040  32.6435702
  22.5461944   1.0012676  33.4743910  22.1777877   2.1159834  32.5185841
  27.1137347   4.1412114  35.1506993  26.5536905   4.2105303  35.9238555
  26.5080851   3.9653098  34.4306489  10.1832556  15.5748841  36.9025180
  10.0664940  16.5194273  36.8003870   9.3625002  15.2722402  37.2910979
  20.0709090  10.2998976  27.7481772  20.9054694   9.8680175  27.5659247
  19.9093433  10.1280990  28.6758667  19.7254983   6.8031090  29.1138112
  19.6703786   6.6375361  28.1726556  19.1001038   7.5107123  29.2700301
  17.0400890   9.1080002  48.4391674  17.9092049   9.2820654  48.0778309
  16.5607641   9.9274418  48.3167404  11.2087070  16.2277103  40.1181108
  12.1114317  16.2600713  40.4347603  10.9824440  15.2977554  40.1327444
  12.9640672  14.9808089  36.7791187  12.0136303  14.9809951  36.6655559
  13.2673158  14.2340824  36.2627221  31.1768482  12.1916889  40.2817744
  30.8451806  13.0612300  40.0578959  30.5814095  11.8753173  40.9611775
  21.4126489  12.5947488  48.0304520  21.0193435  12.0413686  48.7052164
  22.2292630  12.9058066  48.4211037  28.2751613  10.0386470  39.8989058
  27.9315883  10.9288112  39.8228168  28.6430576   9.8488127  39.0358643
  25.8249007  14.8744782  33.4646731  24.9690603  14.4851632  33.2852370
  26.2375959  14.9536743  32.6046517  23.5991040  12.4929855  36.8704473
  24.4644036  12.2972663  36.5110362  23.6668549  12.2640206  37.7973829
  21.5322946  16.7536524  28.2616725  20.6960258  17.0911210  28.5826000
  21.3927715  16.6185503  27.3243862  23.5076026  11.5973312  32.9695909
  22.8540439  11.2822329  32.3452524  23.4656501  10.9749052  33.6955732
  30.0739279   9.2980029  35.0006795  30.3798156   8.4377392  34.7132711
  30.7991884   9.8897649  34.8005789  16.3663635  19.7010716  33.3888393
  16.1688035  19.1080076  32.6639460  15.8110299  19.3962926  34.1064332
  21.4061326  16.5983751  25.4614632  20.5290792  16.4772552  25.0976878
  21.8819079  15.8069829  25.2093520  12.9263466  21.3860911  35.5556139
  13.6134506  21.0722641  34.9677154  12.7711595  22.2902275  35.2823390
  30.3440897  11.7274264  37.4990716  29.4303977  11.9578491  37.6672923
  30.7733998  11.8112708  38.3504749  12.5031442  19.4661504  37.8273606
  12.5415542  18.9325095  38.6210724  11.9971735  18.9396710  37.2084583
  16.1340020  18.1925606  30.9027537  16.4293461  17.2836285  30.8494591
  15.2328056  18.1713346  30.5808540  17.8627861  15.8739704  31.0266862
  17.5340568  14.9937083  30.8441968  18.2167232  15.8187373  31.9143252
  20.9769685  16.1612674  31.3942340  21.3165757  16.6898595  30.6720948
  21.4241805  16.4993080  32.1700907  24.3229597  11.6299037  39.2972731
  25.1455667  11.1559515  39.1751621  24.5667661  12.4089521  39.7971417
  22.9637832  14.6587295  29.5935633  23.6846194  15.0368548  29.0899350
  22.3403136  15.3776172  29.6970611  16.3213838  20.8623502  40.0452371
  15.7767306  21.6383310  40.1772645  17.1993188  21.2094306  39.8871492
  23.1101455  14.1935086  32.4233169  23.2317366  13.2651732  32.6224057
  22.8203497  14.2073772  31.5111485  25.9792645  11.8789996  35.5599889
  26.0014342  11.9429329  34.6051869  26.3960704  11.0394505  35.7540395
  17.1079860  19.9893398  42.9382528  16.3661596  20.1376034  43.5247158
  16.7872604  20.2501664  42.0749277  27.7793451   9.0978355  36.4235778
  28.0595205   8.4301544  37.0496204  28.5644058   9.2907451  35.9110442
  31.9395602  11.2754168  35.2903748  31.7420424  10.9669256  36.1747080
  32.5495308  12.0015807  35.4201678  24.1516635  17.5348138  25.2631742
  23.2448090  17.2381251  25.3394455  24.4292616  17.2377956  24.3966028
  15.0694575  18.8554502  35.7130788  14.7497360  18.0019810  35.4205162
  14.5228004  19.0703080  36.4688755  25.7678701  12.0785028  31.4175983
  24.9579429  11.7332113  31.7931229  26.4563118  11.7692572  32.0063595
  27.6969249  11.1563075  33.0400280  28.2500288  11.5758528  33.6990303
  27.9339335  10.2298823  33.0823236  22.9215420  14.3935073  25.4043721
  23.7834584  14.7189972  25.6639538  23.1065764  13.6066569  24.8916787
  14.9382835  22.4757413  37.6823910  14.2446307  22.0611366  37.1693864
  15.6855826  22.5177950  37.0857329  29.5251622  12.6668658  34.7500264
  30.0251401  12.7785192  33.9414583  30.1687230  12.3629710  35.3901073
  23.8744863  11.6331116  28.6923430  23.8623532  12.5772956  28.8491701
  24.7668284  11.4501262  28.3982891  27.6896982   8.2273893  32.9469367
  26.9229378   7.6732380  33.0926049  28.1007687   8.2995762  33.8083518
  19.6938743  14.5158689  47.0374548  20.5570205  14.1595494  47.2477873
  19.1204154  14.1772584  47.7249952  36.8067472  34.9390079  25.3276856
  37.7526577  34.8096288  25.3965275  36.4281717  34.2004741  25.8046285
  44.3308290  61.8157590  32.6484625  44.2532320  62.7665415  32.7273105
  43.7269933  61.4703463  33.3059551  52.2686464  49.5175422  29.8274827
  53.1804320  49.7502809  29.6522525  51.7596111  50.1012466  29.2649906
  61.2148031  52.3026341  35.6935445  60.4611739  51.7333739  35.5379449
  61.3495572  52.2689005  36.6406080  48.2315135  57.7963310  45.4990506
  47.7878989  57.0099688  45.1811411  48.8932349  57.9842460  44.8334397
  42.9902256  59.3259111  40.0251185  43.5409681  59.1976175  39.2528179
  42.1513732  59.6254000  39.6746078  54.8923679  53.4411271  30.3414666
  54.1153122  53.1022430  29.8969828  55.5715160  53.4463894  29.6669631
  49.2042819  61.2473949  27.8045887  48.5304518  61.5505646  28.4130845
  49.5908641  62.0503030  27.4551344  55.2912176  52.4554978  32.8037588
  55.1530075  52.6456574  31.8758778  54.9348395  53.2174360  33.2605639
  55.3181556  54.5231505  37.8148860  55.7518063  54.4306794  38.6631914
  56.0313137  54.4989005  37.1768876  56.1797105  54.5655205  40.3481745
  56.3732996  55.4701016  40.5941020  56.0797724  54.1062624  41.1820330
  51.2412214  54.7161948  45.9222626  51.0897721  54.4872500  45.0052709
  51.2316894  55.6732549  45.9353971  47.4034034  61.4153622  30.0192966
  47.5785790  60.9441665  30.8338589  46.7166822  62.0419388  30.2474227
  51.2950289  53.0382162  26.3393327  50.6779460  52.3128990  26.2426380
  50.8266778  53.7991522  25.9960402  52.9504421  57.7481071  43.9999108
  52.8916967  57.0640291  43.3329691  53.3523939  58.4900061  43.5479734
  41.9695120  64.5642984  36.7932827  42.2091718  65.1961509  37.4711845
  41.1264316  64.2131024  37.0798186  52.9521828  55.7120654  42.2313087
  52.0648607  55.3746576  42.3539486  53.5220379  54.9803686  42.4681853
  57.4339169  51.1228872  36.9929649  57.4229045  52.0053587  36.6223582
  56.5656548  50.7700423  36.7984186  48.7542038  60.6107685  34.1018781
  48.9364433  59.7929341  34.5646533  49.5775024  60.8275377  33.6643671
  46.5845220  62.6234730  40.7214263  47.1363528  62.7866352  41.4863349
  46.9251414  63.2139168  40.0494288  51.4356095  57.4495988  46.5762918
  51.9795999  58.0625946  46.0817873  50.8542940  58.0075566  47.0929931
  58.0363779  52.2729091  33.5979112  58.4794925  51.5236416  33.1998235
  57.1590289  52.2639228  33.2152844  53.1699560  58.8259433  29.0785710
  53.8650464  59.4466125  29.2973025  53.5122710  57.9754784  29.3538088
  55.0690983  56.2759138  30.6073041  55.5942307  56.6146411  29.8822361
  54.9813336  55.3406154  30.4236176  46.7531644  62.3431121  34.9668294
  46.3136634  61.8507500  35.6601151  47.5039761  61.8004089  34.7260370
  39.2323983  58.5342662  34.9692922  40.0582003  58.2346434  34.5891566
  38.8818035  57.7650285  35.4182711  54.7584889  56.9092042  45.9124239
  53.9680433  56.8916181  45.3728739  54.5218244  57.4480336  46.6673276
  54.8782764  53.7584508  43.2256968  54.9280769  53.5934516  44.1672490
  54.7696687  52.8911767  42.8354848  56.3800961  56.1781450  43.4698989
  56.0885769  56.5411430  44.3062450  55.7673092  55.4648458  43.2912321
  57.5796643  53.7434329  35.9901559  58.4143535  54.1824134  36.1539120
  57.7155772  53.2672983  35.1709805  54.6288149  51.3014064  41.9379047
  55.1042271  51.4941711  41.1297899  53.7053715  51.3573250  41.6922431
  50.4811688  59.2158334  29.1169386  51.4142361  59.1503896  29.3202262
  50.3934901  60.0514601  28.6583919  53.1099705  58.5324205  26.0773334
  53.0313336  58.1984068  26.9709092  53.9309372  59.0245973  26.0764806
  55.8077896  51.3985944  39.2849652  55.7754216  50.4601945  39.4709336
  56.4178520  51.4769981  38.5515477  61.6254446  52.4601951  38.4255689
  62.3557834  52.1987239  38.9863393  61.0161391  51.7230673  38.4657757
  59.7069743  50.6009814  39.0230140  58.9802907  50.4665778  38.4146632
  59.2917030  50.9086642  39.8286858  39.5444694  60.6655277  36.6906737
  39.4099161  59.9055678  36.1244735  39.1276756  61.3896177  36.2235526
  50.6803657  55.8492200  25.6983312  51.3839507  56.0542203  26.3140968
  49.9566305  56.4168962  25.9632396  59.6318611  50.1287867  35.1506993
  59.0718169  50.1981056  35.9238555  59.0262114  49.9528851  34.4306489
  42.7013819  61.5624594  36.9025180  42.5846204  62.5070026  36.8003870
  41.8806266  61.2598155  37.2910979  52.5890354  56.2874729  27.7481772
  53.4235958  55.8555928  27.5659247  52.4274697  56.1156743  28.6758667
  52.2436246  52.7906843  29.1138112  52.1885050  52.6251114  28.1726556
  51.6182301  53.4982876  29.2700301  43.7268334  62.2152856  40.1181108
  44.6295580  62.2476466  40.4347603  43.5005704  61.2853307  40.1327444
  45.4821936  60.9683842  36.7791187  44.5317567  60.9685704  36.6655559
  45.7854422  60.2216577  36.2627221  61.2174629  66.8044381  37.8436949
  61.8553039  66.6851128  37.1400289  61.0995472  67.7525224  37.9024901
  58.0264335  66.7571809  37.7798474  57.6882847  66.6412873  36.8919009
  58.8954104  66.3562974  37.7599480  53.8851151  68.6107285  33.7695365
  53.3216016  68.5197222  33.0011652  53.7703546  67.7907190  34.2497857
  58.5084118  67.9106660  43.7384679  58.4972759  67.5159459  42.8665183
  58.6704758  67.1772733  44.3318451  51.4315583  70.1058477  36.6079585
  52.2236875  69.7649301  36.1925884  51.6712233  70.2153452  37.5281738
  53.3906337  69.3667390  29.4796964  54.1637213  68.8196377  29.3409840
  53.7431736  70.2311639  29.6911425  55.2291379  70.6943772  42.6863863
  54.9381245  71.5989403  42.5710529  55.8648364  70.7360300  43.4007933
  56.1547586  68.0720621  39.2765223  56.7511159  67.8476643  38.5622186
  56.2122558  67.3305366  39.8790671  55.7272615  65.5260056  27.1115414
  55.9798135  65.0041577  26.3498877  54.7897174  65.3626201  27.2142097
  60.7715898  64.5295834  34.9190157  61.5578987  64.1115258  34.5680574
  61.0354602  65.4341927  35.0871805  66.1724325  64.4671068  35.8223136
  66.9049497  63.8970284  36.0560965  65.4163680  64.0792668  36.2629641
  55.4468903  67.4288162  29.3139789  55.3305162  66.7533065  29.9820873
  55.5571163  66.9420536  28.4971942  57.7900444  66.8898309  33.0186478
  57.4258652  66.3628930  33.7299399  58.6467560  66.4996778  32.8452963
  63.6949745  58.1792642  40.2817744  63.3633070  59.0488053  40.0578959
  63.0995358  57.8628926  40.9611775  57.4305931  61.9188209  28.0147826
  57.5980334  62.7868445  28.3818298  57.2403100  62.0815490  27.0909116
  53.6393746  66.8318985  35.7150361  52.7144243  66.6995199  35.9228053
  53.8878159  67.6113204  36.2120304  63.5878408  62.8987728  37.3611094
  62.6795286  62.8303136  37.0669855  63.5366004  63.3759673  38.1892920
  57.4095152  64.3745866  28.9994493  57.2894777  64.8202917  29.8379974
  56.7147741  64.7231184  28.4408031  51.0002557  66.4752258  36.5494150
  51.1294938  66.7286737  37.4633562  50.3200008  67.0679966  36.2298805
  57.6619274  64.3177373  45.3045991  56.8852608  64.8771294  45.2948856
  58.3009837  64.8034156  45.8260862  65.4540055  61.1004166  39.1388968
  64.8114435  61.3936699  38.4928763  64.9494983  60.9857087  39.9442165
  63.1080218  64.8467339  29.8274827  64.0198075  65.0794726  29.6522525
  62.5989865  65.4304384  29.2649906  55.9165646  67.1262827  44.8663958
  56.6580331  67.6647871  44.5898782  55.2102632  67.7529116  45.0235510
  61.3920986  69.2691967  43.4636120  61.8004342  68.8274378  42.7190752
  60.6698248  68.6944595  43.7170313  57.7452056  64.2064574  40.8369677
  58.5913251  64.6303988  40.9804326  57.6850694  63.5498198  41.5308240
  60.8951501  61.8668942  42.4950851  60.6512433  62.6211003  41.9585126
  61.1711432  62.2454290  43.3298098  60.4516193  61.0225375  38.0764688
  59.5900672  61.3206629  38.3681426  60.4778628  61.2395774  37.1445721
  57.2677763  69.5667566  34.4838494  57.7316108  69.8455269  33.6943116
  57.0034561  68.6651011  34.3011585  54.1601844  69.1139048  37.4218257
  54.7303201  69.5426316  36.7835742  54.7509956  68.8321632  38.1202443
  56.2046649  65.6890718  31.2928059  56.9070692  66.1411762  31.7601985
  55.8727277  65.0474537  31.9207952  54.6527010  64.2802475  45.6679268
  54.0225671  64.9618756  45.9014665  54.5463098  64.1685557  44.7232407
  49.9471983  63.9474271  36.5945193  49.1571037  64.2031800  36.1185303
  50.4383230  64.7622609  36.6997233  51.8986728  64.3118850  33.5528669
  51.1017891  64.4237545  34.0712165  51.6712320  64.6505502  32.6869560
  57.7292396  70.8363553  41.5011184  57.7936828  71.2983961  42.3369356
  57.0203319  70.2060918  41.6293494  48.2309686  64.2004761  39.0260183
  48.4817724  65.0851771  39.2917759  48.7669234  64.0209363  38.2535275
  53.9307753  58.5823241  48.0304520  53.5374698  58.0289439  48.7052164
  54.7473893  58.8933819  48.4211037  50.8969811  70.0207099  31.9418089
  51.4094331  70.8150349  32.0923654  51.5492523  69.3233389  31.8751691
  52.7064695  73.1372855  34.0240843  52.8831324  74.0590820  33.8361826
  53.5021529  72.8231275  34.4535222  56.8475714  59.9981120  45.6224776
  57.5885427  60.5988273  45.5429239  57.0793637  59.2558758  45.0642819
  51.9917052  65.1837487  43.9003006  51.8770567  64.2822744  44.2010105
  51.1361570  65.4301184  43.5487822  57.6263182  70.9202157  44.3695416
  58.1591519  70.1590445  44.1394724  57.0977263  70.6275809  45.1119570
  60.7932877  56.0262223  39.8989058  60.4497146  56.9163865  39.8228168
  61.1611839  55.8363881  39.0358643  48.8618727  68.3495753  32.7177660
  49.6993949  68.7592762  32.5011368  49.0396995  67.4095195  32.6877854
  60.7583160  66.0170834  28.4061493  60.2429783  66.7875439  28.6449880
  60.4860468  65.3435970  29.0294554  58.3430271  60.8620535  33.4646731
  57.4871867  60.4727385  33.2852370  58.7557222  60.9412496  32.6046517
  59.8729417  58.3966878  37.8638291  59.3694213  58.3597013  37.0506096
  60.1660024  59.3059621  37.9234948  56.1172303  58.4805608  36.8704473
  56.9825300  58.2848416  36.5110362  56.1849812  58.2515960  37.7973829
  60.5469463  63.8897926  30.2321274  60.2419598  64.2044075  31.0831417
  61.4999905  63.9679346  30.2748607  58.9915895  70.0488149  31.8814228
  58.4637256  69.3140909  31.5687465  58.4903397  70.8262826  31.6354196
  53.7234622  60.7107816  34.2420840  54.2978374  60.4882997  33.5094032
  54.3105605  60.7796510  34.9949441  62.7814199  66.5981543  35.0485216
  63.2946081  67.2311534  35.5506926  63.4315423  65.9982738  34.6828576
  54.0504209  62.7412277  28.2616725  53.2141522  63.0786963  28.5826000
  53.9108979  62.6061256  27.3243862  56.0257290  57.5849065  32.9695909
  55.3721702  57.2698082  32.3452524  55.9837764  56.9624805  33.6955732
  57.1368495  67.8668360  24.8849201  56.2295556  67.6357613  25.0840350
  57.6339527  67.0705979  25.0723183  59.2595030  64.0730998  37.2943557
  58.3417592  64.2945945  37.1365245  59.6755174  64.1477309  36.4355264
  60.0430078  65.4722414  32.4246237  60.7901897  65.9843811  32.1153359
  60.3121668  65.1506467  33.2850630  58.3156728  67.9680955  29.4073191
  57.4067947  67.6839987  29.5045661  58.3451812  68.3880033  28.5476498
  62.4908915  62.5079530  34.4065026  61.7531672  61.9956916  34.7375269
  62.7435689  62.0679912  33.5948303  62.5920542  55.2855782  35.0006795
  62.8979419  54.4253145  34.7132711  63.3173147  55.8773402  34.8005789
  48.8844899  65.6886469  33.3888393  48.6869298  65.0955829  32.6639460
  48.3291563  65.3838679  34.1064332  56.8641622  65.5809575  35.5082987
  56.9190232  64.6283412  35.4325463  56.0532824  65.7369014  35.9924285
  58.0132816  69.5089698  26.7461270  57.5752246  68.7925557  26.2866907
  58.7543257  69.7365813  26.1846361  54.8033982  64.1986635  33.2673365
  53.9901848  64.4980805  33.6738558  55.2992976  63.8042324  33.9847848
  60.4008194  64.6628459  42.0988259  60.7557582  64.8899932  42.9582725
  61.0480325  64.9946836  41.4765515  54.2948057  61.7704990  38.8834600
  54.9347436  61.6293749  38.1857564  53.4625587  61.4839504  38.5073202
  55.0708361  71.0707421  34.9969593  55.8648959  70.5757741  34.7952168
  54.3600053  70.5425284  34.6337298  51.3791124  65.2150503  31.0729345
  50.4488712  65.1534958  31.2899308  51.4748596  64.6926455  30.2765987
  51.2976673  61.7405315  33.6607587  51.5583491  62.6550649  33.5516748
  52.1193846  61.2729758  33.8104200  52.7701599  63.1543073  40.8306412
  53.4424652  62.9460435  40.1819061  51.9431385  62.9565159  40.3911644
  58.6727171  59.7805013  42.8472073  58.0255086  60.4794963  42.7536549
  59.4428186  60.2141157  43.2148321  58.8491305  67.6185778  40.9068892
  59.7783365  67.7696938  40.7337860  58.4282335  67.7069799  40.0517539
  57.6479637  71.6436443  38.6767430  57.5090723  71.2755227  39.5493368
  56.8594233  72.1584082  38.5051388  59.1984852  71.0218045  36.0656268
  58.8634685  70.9818815  36.9613918  58.6988798  70.3562761  35.5926678
  53.1729096  66.4285676  41.5908849  53.0348894  65.6965914  42.1920388
  54.0834019  66.3394576  41.3093037  62.1344044  68.3674080  26.3393327
  61.5173214  67.6420908  26.2426380  61.6660532  69.1283440  25.9960402
  55.8011397  66.1405635  41.0792528  56.5111015  65.4998827  41.0379147
  55.7580705  66.3918530  42.0018709  54.5140331  63.1270853  42.8988168
  53.9777688  62.6761591  43.5509764  53.9257039  63.2616762  42.1558632
  53.9242590  62.5859504  25.4614632  53.0472056  62.4648305  25.0976878
  54.4000343  61.7945582  25.2093520  45.4444730  67.3736664  35.5556139
  46.1315769  67.0598394  34.9677154  45.2892858  68.2778029  35.2823390
  60.4203166  60.7480424  35.3511357  60.9171865  59.9950386  35.0312428
  59.6490147  60.7844741  34.7854567  57.0038134  62.8897807  35.0783042
  56.6335922  62.3368847  35.7663948  57.4997227  62.2855940  34.5258042
  64.8905498  65.3469430  33.4599815  65.3565950  66.1797422  33.3860118
  65.3412998  64.8814412  34.1645074  62.8622160  57.7150017  37.4990716
  61.9485240  57.9454244  37.6672923  63.2915262  57.7988462  38.3504749
  62.6328619  65.9039909  39.9990610  61.9800069  66.1515817  39.3443063
  63.0108999  65.0904048  39.6653088  58.6816192  66.6459720  46.4856647
  58.0056829  66.5453850  47.1559023  59.5043826  66.4898934  46.9492645
  50.4295051  72.8831657  39.1069163  51.0148488  72.1375345  39.2397067
  50.2319890  73.1935614  39.9905827  45.0212706  65.4537257  37.8273606
  45.0596805  64.9200848  38.6210724  44.5152999  64.9272463  37.2084583
  51.8755741  62.3724930  44.9709182  52.5027779  61.9902008  45.5846707
  51.0183659  62.1539132  45.3364875  48.6521283  64.1801359  30.9027537
  48.9474724  63.2712038  30.8494591  47.7509319  64.1589099  30.5808540
  54.9841844  59.5911782  43.1595738  55.5076246  59.8374079  43.9222047
  54.7654177  60.4231817  42.7398875  50.3809125  61.8615457  31.0266862
  50.0521831  60.9812836  30.8441968  50.7348496  61.8063126  31.9143252
  53.4950948  62.1488427  31.3942340  53.8347021  62.6774348  30.6720948
  53.9423069  62.4868833  32.1700907  56.1894389  60.5325478  40.8445408
  55.8491209  59.7333291  41.2466088  55.4833395  60.8327188  40.2722241
  56.8410861  57.6174790  39.2972731  57.6636930  57.1435268  39.1751621
  57.0848924  58.3965274  39.7971417  55.4819095  60.6463048  29.5935633
  56.2027458  61.0244301  29.0899350  54.8584399  61.3651925  29.6970611
  59.6250218  61.3508197  30.5293965  59.8413833  62.2332835  30.2282793
  59.1444285  60.9594411  29.7999607  54.3649440  64.3093911  37.1064710
  54.2194020  64.6234214  37.9988991  53.8874643  64.9278811  36.5535608
  56.2245822  61.2996459  37.1545599  56.2107391  60.4037552  36.8177897
  56.9418251  61.3067122  37.7883885  58.0771953  61.7333799  39.1998727
  57.8189731  62.6550869  39.1983057  57.5456993  61.3364233  39.8899191
  48.8395102  66.8499255  40.0452371  48.2948570  67.6259063  40.1772645
  49.7174452  67.1970059  39.8871492  55.6282718  60.1810839  32.4233169
  55.7498630  59.2527485  32.6224057  55.3384761  60.1949525  31.5111485
  58.4973909  57.8665749  35.5599889  58.5195606  57.9305082  34.6051869
  58.9141968  57.0270258  35.7540395  49.6261124  65.9769151  42.9382528
  48.8842860  66.1251787  43.5247158  49.3053868  66.2377417  42.0749277
  50.0717737  73.8634580  34.9692922  50.8975757  73.5638352  34.5891566
  49.7211789  73.0942202  35.4182711  55.0399270  73.2161048  37.0390596
  54.4179280  72.5531753  36.7392824  55.7104137  73.2422180  36.3564244
  48.2726342  71.7820906  35.9281856  47.4358251  71.3543081  35.7465857
  48.2449988  71.9753350  36.8652647  55.1123798  61.6942836  46.6323102
  55.1611953  62.5704959  46.2500872  55.6546312  61.1520229  46.0594745
  54.6012777  71.7664972  30.5149057  54.7500898  72.4500436  29.8615729
  55.4079221  71.7470062  31.0298512  63.0080281  65.0707354  44.5416274
  63.9090144  64.9313819  44.2500272  63.0828255  65.2361809  45.4814452
  57.3423086  62.4474209  43.3869461  56.4726396  62.7407775  43.1152049
  57.5782567  63.0314654  44.1076724  52.3565410  67.7930149  31.5210125
  52.1111452  66.8892479  31.7190336  52.5261325  67.7947300  30.5789603
  60.0462120  58.6653826  40.9034881  60.5644064  59.4014853  40.5781370
  59.6917253  58.9717819  41.7381640  51.6261058  63.5258507  29.0196287
  50.9330303  63.6002862  28.3636323  51.3812810  62.7618850  29.5417804
  60.2974714  55.0854108  36.4235778  60.5776468  54.4177297  37.0496204
  61.0825321  55.2783204  35.9110442  64.1683573  63.5071742  40.1707353
  65.1200996  63.6069840  40.1919577  63.9987023  62.7150011  40.6805437
  62.1897952  60.5927325  40.3566754  61.5947884  60.8732338  39.6613242
  61.9047649  61.0821226  41.1283495  58.4854981  65.5973915  25.3276856
  59.4314086  65.4680123  25.3965275  58.1069226  64.8588577  25.8046285
  66.7966139  63.5188905  39.3307936  66.2805188  62.7347362  39.1437865
  67.6806087  63.1907622  39.4954455  64.4576866  57.2629921  35.2903748
  64.2601687  56.9545009  36.1747080  65.0676571  57.9891560  35.4201678
  58.3693674  69.6491661  46.7877513  59.2896683  69.8270260  46.9817560
  58.3343257  68.7047706  46.6357213  56.6697898  63.5223891  25.2631742
  55.7629354  63.2257004  25.3394455  56.9473879  63.2253709  24.3966028
  47.5875839  64.8430255  35.7130788  47.2678623  63.9895563  35.4205162
  47.0409267  65.0578833  36.4688755  51.3655746  67.5592696  39.4300295
  51.5841756  68.4909803  39.4488328  51.7781520  67.2000670  40.2155098
  58.2859964  58.0660781  31.4175983  57.4760693  57.7207866  31.7931229
  58.9744381  57.7568325  32.0063595  60.2150512  57.1438828  33.0400280
  60.7681551  57.5634281  33.6990303  60.4520599  56.2174576  33.0823236
  56.2383612  63.1325901  48.8203044  56.1380339  64.0820258  48.7515135
  56.0205154  62.8044140  47.9479114  55.4396683  60.3810826  25.4043721
  56.3015847  60.7065725  25.6639538  55.6247027  59.5942322  24.8916787
  47.4564099  68.4633166  37.6823910  46.7627570  68.0487119  37.1693864
  48.2037090  68.5053703  37.0857329  63.5929320  59.2539353  32.5478944
  63.0127989  59.9124157  32.1656996  63.3265252  58.4316697  32.1366361
  62.0432886  58.6544411  34.7500264  62.5432664  58.7660945  33.9414583
  62.6868494  58.3505463  35.3901073  56.1014882  66.5623040  47.6368105
  55.6181963  67.3623400  47.8431994  56.1875821  66.5730985  46.6835549
  49.3700841  68.3951420  35.5589925  49.3471529  68.4939107  34.6071808
  49.6801478  69.2416571  35.8807091  52.0288219  70.4527575  39.6736539
  52.9831473  70.4211517  39.6066471  51.8300743  69.9918199  40.4886765
  52.6187601  69.0228691  42.2407337  53.4380490  69.5172770  42.2642174
  52.8924409  68.1060659  42.2124904  62.3754198  61.4139443  31.6035292
  61.4880053  61.6989094  31.3855487  62.7908187  61.2533207  30.7562569
  65.7268734  61.4385964  35.3189631  66.5029124  61.9282417  35.5914248
  65.0016868  61.8644018  35.7761501  68.1641292  62.1513583  36.3763572
  68.7585783  61.9109319  35.6656880  68.2367876  61.4320714  37.0037108
  50.3838448  75.9947194  36.6906737  50.2492916  75.2347595  36.1244735
  49.9670510  76.7188094  36.2235526  62.3495221  66.9293979  31.8185582
  62.2930423  67.3862531  30.9793215  62.9023564  66.1684664  31.6408425
  66.1600027  62.7183711  32.6435702  65.9036961  62.3180347  33.4743910
  65.5352895  63.4327505  32.5185841  47.8722516  63.3566825  42.9399534
  48.5181379  62.8465779  43.4286759  47.6639667  64.0935506  43.5142959
  56.3926126  57.6206869  28.6923430  56.3804796  58.5648709  28.8491701
  57.2849548  57.4377015  28.3982891  60.2078246  54.2149646  32.9469367
  59.4410641  53.6608133  33.0926049  60.6188951  54.2871515  33.8083518
  52.2120007  60.5034442  47.0374548  53.0751468  60.1471247  47.2477873
  51.6385417  60.1648337  47.7249952  28.6993367  -2.1769250  24.5682256
  29.3371777  -2.2962503  23.8645596  28.5814210  -1.2288406  24.6270208
  25.5083073  -2.2241822  24.5043780  25.1701585  -2.3400757  23.6164315
  26.3772841  -2.6250657  24.4844786  25.9902856  -1.0706970  30.4629986
  25.9791497  -1.4654172  29.5910489  26.1523496  -1.8040897  31.0563757
  18.9134321   1.1244846  23.3324892  19.7055613   0.7835671  22.9171191
  19.1530971   1.2339821  24.2527045  26.9469448   3.2964622  15.8055136
  26.2957427   3.8818703  15.4189150  27.7413810   3.8270817  15.8650174
  22.7110117   1.7130142  29.4109170  22.4199983   2.6175773  29.2955836
  23.3467102   1.7546669  30.1253239  23.6366324  -0.9093010  26.0010529
  24.2329896  -1.1336987  25.2867492  23.6941296  -1.6508264  26.6035977
  25.2719182  -2.0915321  19.7431785  24.9077389  -2.6184700  20.4544706
  26.1286298  -2.4816852  19.5698270  27.6700002   1.3991557  26.4058964
  27.3700725   2.3016596  26.2974771  27.3251062   1.1323740  27.2580116
  21.1212484  -2.1494646  22.4395668  20.1962980  -2.2818432  22.6473360
  21.3696897  -1.3700427  22.9365610  22.6520782   8.1635878  19.3729931
  22.5744812   9.1143703  19.4518412  22.0482426   7.8181750  20.0304858
  25.1438012  -4.6636257  32.0291298  24.3671346  -4.1042337  32.0194163
  25.7828575  -4.1779474  32.5506168  23.3984384  -1.8550804  31.5909265
  24.1399069  -1.3165760  31.3144089  22.6921370  -1.2284515  31.7480817
  28.8739724   0.2878337  30.1881427  29.2823080  -0.1539253  29.4436059
  28.1516985  -0.2869036  30.4415619  25.2270794  -4.7749056  27.5614984
  26.0731989  -4.3509643  27.7049633  25.1669432  -5.4315432  28.2553547
  29.1968539   0.8479527  23.9433715  28.5677401   1.0125242  23.2409783
  28.8094201   1.2621137  24.7144679  33.0757770   1.7833965  21.2978079
  32.3908809   2.1632867  20.7475113  33.1601620   2.3929292  22.0310027
  30.3308702  -0.5706076  27.8973423  30.5425597   0.0725684  27.2207804
  30.2838450  -1.4043759  27.4295353  24.7496500   0.5853936  21.2083801
  25.2134846   0.8641639  20.4188423  24.4853298  -0.3162620  21.0256891
  21.6420581   0.1325417  24.1463564  22.2121939   0.5612685  23.5081048
  22.2328693  -0.1491998  24.8447749  31.4454530   2.3065880  26.0695780
  32.2671974   1.9046067  25.7878462  31.4416933   2.2034114  27.0211896
  25.2111133   1.8549923  28.2256491  25.2755566   2.3170330  29.0614662
  24.5022057   1.2247288  28.3538800  24.9259151   3.5218031  18.0935471
  24.7904826   4.3669566  18.5220319  25.4668964   3.7237308  17.3301405
  20.1883433   4.1559225  20.7486149  20.3650061   5.0777190  20.5607133
  20.9840267   3.8417644  21.1780529  26.5527627   4.1441597  32.2235813
  26.1091482   3.3577976  31.9056717  27.2144841   4.3320748  31.5579704
  21.3114749   5.6737399  26.7496492  21.8622174   5.5454462  25.9773485
  20.4726225   5.9732288  26.3991384  28.6508866   4.4244397  30.2517214
  28.6327341   5.2453278  29.7597483  29.5728786   4.2998472  30.4767355
  25.1081920   1.9388526  31.0940723  25.6410256   1.1776815  30.8640031
  24.5796001   1.6462178  31.8364877  33.2136171  -0.2110442  17.0659973
  32.4365614  -0.5499282  16.6215135  33.8927652  -0.2057819  16.3914938
  26.4734632   1.0674519  18.6059535  25.9455994   0.3327279  18.2932772
  25.9722135   1.8449195  18.3599503  31.4527478  -0.7376461  23.7226581
  30.7951153  -0.0477199  23.8106710  32.2567878  -0.3480029  24.0660567
  30.2632937  -2.3832088  21.7730523  30.7764819  -1.7502096  22.2752232
  30.9134161  -2.9830892  21.4073883  27.5255311   7.5952236  14.5291194
  26.8517010   7.8983933  15.1376152  27.9121133   8.3981317  14.1796651
  26.7413768  -4.9082632  24.0188863  25.8236329  -4.6867685  23.8610551
  27.1573912  -4.8336322  23.1600571  27.5248816  -3.5091217  19.1491543
  28.2720635  -2.9969819  18.8398666  27.7940405  -3.8307164  20.0095937
  31.0294733   2.5973914  19.9009665  30.5757061   1.7564823  19.9574856
  30.3988700   3.2335312  20.2384446  29.4727673   4.4350410  20.8359483
  29.7650647   4.9955467  20.1171849  29.9826293   4.7278971  21.5912643
  24.3460360  -3.4004055  22.2328293  24.4008970  -4.3530219  22.1570770
  23.5351562  -3.2444616  22.7169592  24.4361298   5.2130761  21.9252937
  24.3937477   5.4391608  20.9961469  25.3523997   4.9794136  22.0738738
  27.8826932  -4.3185171  28.8233566  28.2376319  -4.0913698  29.6828032
  28.5299063  -3.9866794  28.2010821  33.6124669  -1.1966735  19.5282895
  33.4742567  -1.0065139  18.6004084  33.2560887  -0.4347352  19.9850946
  33.6394048   0.8709792  24.5394166  34.0730555   0.7785081  25.3877220
  34.3525629   0.8467292  23.9014182  22.5527099   2.0893790  21.7214899
  23.3467697   1.5944111  21.5197474  21.8418791   1.5611654  21.3582605
  27.3721943   4.4711886  26.0727267  27.4258965   5.0402822  26.8404983
  26.5036724   4.6413771  25.7081304  34.5009598   0.9133492  27.0727052
  34.6945488   1.8179303  27.3186327  34.4010216   0.4540912  27.9065637
  29.5624706   1.0640235  32.6467932  29.4110213   0.8350787  31.7298016
  29.5529386   2.0210837  32.6599277  26.3310043  -1.3627852  27.6314199
  27.2602103  -1.2116692  27.4583166  25.9101073  -1.2743831  26.7762845
  25.1298375   2.6622812  25.4012737  24.9909460   2.2941597  26.2738675
  24.3412971   3.1770452  25.2296694  25.7246527   7.7631909  16.7438273
  25.8998282   7.2919952  17.5583896  25.0379315   8.3897675  16.9719534
  26.6803590   2.0404415  22.7901574  26.3453422   2.0005185  23.6859224
  26.1807535   1.3749131  22.3171985  23.2830134  -2.8407996  27.8037835
  23.9929753  -3.4814803  27.7624454  23.2399443  -2.5895101  28.7264016
  31.2716913   4.0959358  30.7244414  31.2129459   3.4118578  30.0574997
  31.6736431   4.8378348  30.2725040  20.2907612  10.9121272  23.5178133
  20.5304210  11.5439796  24.1957152  19.4476808  10.5609312  23.8043492
  31.2734320   2.0598942  28.9558394  30.3861099   1.7224863  29.0784793
  31.8432871   1.3281973  29.1927159  24.8035474   6.7200394  25.9219637
  24.7305645   7.5255366  26.4338942  24.3612867   6.9192360  25.0967659
  24.5925253   5.9572164  19.4322459  23.8092775   6.4993844  19.5260683
  25.2917999   6.4746144  19.8316700  27.2634157   6.6187228  28.0777796
  27.9762129   7.2534693  28.0053697  26.7724186   6.7151094  27.2617798
  28.9851684   0.5238481  19.6495088  28.0507963   0.6439943  19.4799792
  29.1628353  -0.3789052  19.3855097  22.3146071   4.3681672  28.8983367
  23.0155530   5.0018154  29.0512761  21.8441186   4.7096403  28.1379006
  30.4400467   2.7099621  17.1831274  30.7160311   2.5956216  18.0925148
  29.5704965   2.3117106  17.1443447  30.1147357  -3.0773721  26.7235917
  29.4618807  -2.8297814  26.0688370  30.4927737  -3.8909583  26.3898394
  27.0754531   6.9585972  20.8264087  27.2576925   6.1407628  21.2891840
  27.8987517   7.1753664  20.3888977  27.4096696   5.8854157  18.0879136
  27.9384463   5.3746612  17.4749298  27.6724916   5.5696687  18.9524669
  26.1634930  -2.3353910  33.2101954  25.4875567  -2.4359781  33.8804329
  26.9862564  -2.4914696  33.6737951  17.9113789   3.9018027  25.8314469
  18.4967226   3.1561714  25.9642374  17.7138627   4.2121983  26.7151133
  20.7652444   6.9369274  20.8476912  20.0962819   7.4215402  20.3640952
  20.6265314   7.1838494  21.7620290  24.9057713   8.9713017  27.4459570
  25.4576021   9.1344639  28.2108655  25.2463906   9.5617455  26.7739595
  29.7568587   3.7974275  33.3008225  30.3008491   4.4104233  32.8063179
  29.1755432   4.3553853  33.8175238  28.0426100   6.9194993  24.4323252
  27.9177239   6.1184733  23.9234198  28.7005191   7.4141186  23.9437222
  30.1061008   4.7204013  26.0602802  29.1591344   4.6009364  25.9881129
  30.4543781   3.8326511  26.1429064  27.1107442   4.5156729  22.2607155
  26.9632404   3.5873437  22.4414725  27.9360935   4.5376820  21.7764230
  30.7141563   5.3385288  23.3472027  31.6388111   5.1328149  23.2096478
  30.5456867   5.0901689  24.2561369  30.5036880   5.8570955  18.7034119
  30.6773757   5.2917378  17.9507971  30.9965771   6.6571850  18.5213609
  31.4912052   5.1737720  15.8031017  32.1862957   5.7944413  16.0218332
  31.8335202   4.3233071  16.0783395  33.3903475   2.6237425  17.3318348
  33.9154799   2.9624698  16.6067668  33.3025828   1.6884441  17.1481482
  25.0523524   6.5371499  29.4608224  25.3610650   6.2920646  30.3330924
  25.8499006   6.7418138  28.9727095  25.0744136   8.6909409  21.6913601
  24.6349126   8.1985787  22.3846458  25.8252253   8.1482376  21.4505676
  17.5536475   4.8820950  21.6938229  18.3794495   4.5824721  21.3136873
  17.2030527   4.1128572  22.1428018  22.5218008   4.2347418  23.7635903
  21.8998017   3.5718123  23.4638131  23.1922875   4.2608550  23.0809550
  15.7545080   2.8007276  22.6527163  14.9176988   2.3729450  22.4711164
  15.7268725   2.9939719  23.5897954  33.0797381   3.2570329  32.6369546
  32.2892925   3.2394468  32.0974045  32.8430736   3.7958623  33.3918582
  33.1995256   0.1062795  29.9502274  33.2493261  -0.0587197  30.8917797
  33.0909180  -0.7609946  29.5600155  34.7013453   2.5259737  30.1944296
  34.4098262   2.8889718  31.0307757  34.0885584   1.8126745  30.0157628
  35.9009136   0.0912617  22.7146866  36.7356027   0.5302421  22.8784426
  36.0368264  -0.3848730  21.8955112  32.9500641  -2.3507648  28.6624354
  33.4254763  -2.1580002  27.8543205  32.0266207  -2.2948463  28.4167738
  28.8024180   5.5636622  15.8414693  29.7354854   5.4982183  16.0447568
  28.7147393   6.3992889  15.3829226  31.4312197   4.8802492  12.8018640
  31.3525829   4.5462356  13.6954398  32.2521864   5.3724260  12.8010113
  25.8512412   0.6678030  33.5122820  26.7715421   0.8456629  33.7062867
  25.8161995  -0.2765924  33.3602519  18.8474484  -1.4220935  26.1545601
  19.0660494  -0.4903827  26.1733635  19.2600258  -1.7812960  26.9400405
  23.5833620  -2.4190590  34.3613412  23.1000701  -1.6190230  34.5677301
  23.6694559  -2.4082645  33.4080856  19.5106957   1.4713944  26.3981846
  20.4650211   1.4397887  26.3311777  19.3119481   1.0104568  27.2132072
  20.1006339   0.0415060  28.9652643  20.9199228   0.5359139  28.9887481
  20.3743147  -0.8752971  28.9370211  17.8657186   7.0133564  23.4152044
  17.7311654   6.2533965  22.8490042  17.4489248   7.7374464  22.9480832
  29.8313959  -2.0519651  18.5430889  29.7749161  -1.5951100  17.7038521
  30.3842302  -2.8128967  18.3653732  21.0226312   7.9102881  23.6270486
  20.9058696   8.8548313  23.5249176  20.2018758   7.6076442  24.0156285
  30.9102846   2.6353017  14.4727079  31.7448450   2.2034215  14.2904554
  30.7487189   2.4635030  15.4003973  27.8794646   1.4434042  35.1636981
  28.7485805   1.6174694  34.8023616  27.4001397   2.2628459  35.0412710
  22.0480826   8.5631143  26.8426415  22.9508073   8.5954753  27.1592910
  21.8218196   7.6331594  26.8572750  23.8034428   7.3162129  23.5036493
  22.8530059   7.3163991  23.3900866  24.1066914   6.5694864  22.9872528
  39.5387121  13.1522668  24.5682256  40.1765531  13.0329415  23.8645596
  39.4207964  14.1003512  24.6270208  36.3476828  13.1050096  24.5043780
  36.0095339  12.9891161  23.6164315  37.2166596  12.7041261  24.4844786
  32.2063643  14.9585572  20.4940671  31.6428508  14.8675509  19.7256959
  32.0916038  14.1385477  20.9743164  29.7528075  16.4536764  23.3324892
  30.5449367  16.1127589  22.9171191  29.9924725  16.5631739  24.2527045
  37.7863202  18.6256540  15.8055136  37.1351182  19.2110620  15.4189150
  38.5807565  19.1562735  15.8650174  31.7118829  15.7145677  16.2042271
  32.4849705  15.1674664  16.0655146  32.0644228  16.5789926  16.4156732
  34.4760079  14.4198908  26.0010529  35.0723651  14.1954930  25.2867492
  34.5335050  13.6783653  26.6035977  34.0485107  11.8738343  13.8360720
  34.3010628  11.3519865  13.0744183  33.1109666  11.7104489  13.9387404
  39.0928390  10.8774122  21.6435464  39.8791479  10.4593545  21.2925881
  39.3567094  11.7820214  21.8117112  39.2638467  16.3146972  16.3424120
  38.6284300  16.3881598  17.0545025  38.9335874  16.9040571  15.6643200
  44.4936817  10.8149355  22.5468442  45.2261989  10.2448572  22.7806272
  43.7376173  10.4270955  22.9874948  33.7681396  13.7766449  16.0385095
  33.6517654  13.1011353  16.7066180  33.8783656  13.2898823  15.2217248
  36.1112937  13.2376596  19.7431785  35.7471144  12.7107217  20.4544706
  36.9680053  12.8475065  19.5698270  42.0162237   4.5270929  27.0063051
  41.6845562   5.3966340  26.7824266  41.4207851   4.2107213  27.6857081
  35.7518424   8.2666496  14.7393133  35.9192826   9.1346732  15.1063604
  35.5615593   8.4293778  13.8154422  31.9606238  13.1797272  22.4395668
  31.0356735  13.0473486  22.6473360  32.2090652  13.9591491  22.9365610
  41.9090901   9.2466015  24.0856401  41.0007778   9.1781424  23.7915162
  41.8578496   9.7237960  24.9138226  35.7307645  10.7224154  15.7239800
  35.6107270  11.1681204  16.5625280  35.0360233  11.0709471  15.1653338
  29.3215049  12.8230545  23.2739457  29.4507431  13.0765024  24.1878869
  28.6412501  13.4158253  22.9544112  35.9831766  10.6655661  32.0291298
  35.2065100  11.2249581  32.0194163  36.6222329  11.1512444  32.5506168
  43.7752547   7.4482454  25.8634275  43.1326927   7.7414987  25.2174069
  43.2707476   7.3335374  26.6687471  41.4292711  11.1945627  16.5520134
  42.3410567  11.4273013  16.3767832  40.9202358  11.7782671  15.9895213
  34.2378139  13.4741114  31.5909265  34.9792823  14.0126158  31.3144089
  33.5315124  14.1007403  31.7480817  36.0664548  10.5542861  27.5614984
  36.9125744  10.9782275  27.7049633  36.0063186   9.8976486  28.2553547
  40.0362293  16.1771445  23.9433715  39.4071155  16.3417159  23.2409783
  39.6487955  16.5913055  24.7144679  43.9151525  17.1125883  21.2978079
  43.2302563  17.4924784  20.7475113  43.9995374  17.7221210  22.0310027
  39.2163994   8.2147230  29.2196157  38.9724926   8.9689290  28.6830433
  39.4923924   8.5932577  30.0543404  41.1702456  14.7585842  27.8973423
  41.3819352  15.4017602  27.2207804  41.1232205  13.9248159  27.4295353
  38.7728685   7.3703663  24.8009995  37.9113164   7.6684916  25.0926732
  38.7991120   7.5874062  23.8691028  35.5890255  15.9145853  21.2083801
  36.0528600  16.1933556  20.4188423  35.3247053  15.0129298  21.0256891
  32.4814336  15.4617335  24.1463564  33.0515693  15.8904603  23.5081048
  33.0722448  15.1799919  24.8447749  34.5259141  12.0369006  18.0173366
  35.2283184  12.4890049  18.4847292  34.1939769  11.3952824  18.6453259
  32.9739502  10.6280762  32.3924575  32.3438163  11.3097043  32.6259972
  32.8675590  10.5163844  31.4477713  28.2684475  10.2952558  23.3190499
  27.4783529  10.5510087  22.8430610  28.7595722  11.1100896  23.4242540
  30.2199220  10.6597138  20.2773976  29.4230384  10.7715832  20.7957472
  29.9924812  10.9983790  19.4114866  26.5522178  10.5483049  25.7505490
  26.8030216  11.4330059  26.0163066  27.0881726  10.3687650  24.9780582
  50.3754277  13.9796546  22.4180752  49.6217986  13.4103944  22.2624756
  50.5101819  13.9459210  23.3651386  35.7652906  18.8509948  18.0935471
  35.6298580  19.6961484  18.5220319  36.3062718  19.0529226  17.3301405
  32.2520245   4.9301528  34.7549826  31.8587191   4.3767727  35.4297470
  33.0686386   5.2412107  35.1456344  29.2182303  16.3685386  18.6663396
  29.7306824  17.1628637  18.8168961  29.8705016  15.6711677  18.5996997
  31.0277188  19.4851143  20.7486149  31.2043816  20.4069107  20.5607133
  31.8234021  19.1709562  21.1780529  35.1688206   6.3459407  32.3470083
  35.9097920   6.9466560  32.2674545  35.4006129   5.6037045  31.7888125
  30.3129544  11.5315774  30.6248312  30.1983059  10.6301032  30.9255411
  29.4574062  11.7779471  30.2733129  39.1145369   2.3740510  26.6234364
  38.7709639   3.2642152  26.5473475  39.4824332   2.1842168  25.7603949
  27.1831220  14.6974041  19.4422967  28.0206442  15.1071049  19.2256674
  27.3609487  13.7573483  19.4123160  39.0795652  12.3649121  15.1306800
  38.5642275  13.1353726  15.3695187  38.8072960  11.6914257  15.7539861
  36.6642763   7.2098822  20.1892038  35.8084359   6.8205672  20.0097677
  37.0769715   7.2890783  19.3291823  38.1941910   4.7445165  24.5883598
  37.6906705   4.7075300  23.7751403  38.4872516   5.6537908  24.6480254
  34.4384795   4.8283895  23.5949779  35.3037792   4.6326704  23.2355669
  34.5062304   4.5994247  24.5219136  44.0529926  15.1181476  17.0659973
  43.2759369  14.7792635  16.6215135  44.7321407  15.1234099  16.3914938
  38.8681955  10.2376213  16.9566581  38.5632091  10.5522362  17.8076724
  39.8212397  10.3157633  16.9993914  37.3128387  16.3966437  18.6059535
  36.7849748  15.6619196  18.2932772  36.8115890  17.1741113  18.3599503
  42.2921233  14.5915457  23.7226581  41.6344907  15.2814719  23.8106710
  43.0961632  14.9811889  24.0660567  32.0447114   7.0586103  20.9666146
  32.6190866   6.8361284  20.2339339  32.6318097   7.1274797  21.7194747
  41.1026692  12.9459830  21.7730523  41.6158573  13.5789822  22.2752232
  41.7527916  12.3461025  21.4073883  32.3716702   9.0890564  14.9862031
  31.5354014   9.4265250  15.3071306  32.2321471   8.9539544  14.0489168
  34.3469782   3.9327352  19.6941216  33.6934195   3.6176369  19.0697830
  34.3050256   3.3103092  20.4201039  35.4580987  14.2146647  11.6094508
  34.5508049  13.9835900  11.8085657  35.9552019  13.4184266  11.7968489
  38.3649066  22.9244154  14.5291194  37.6910765  23.2275851  15.1376152
  38.7514888  23.7273234  14.1796651  37.5807523  10.4209285  24.0188863
  36.6630084  10.6424232  23.8610551  37.9967666  10.4955596  23.1600571
  38.3642570  11.8200701  19.1491543  39.1114389  12.3322098  18.8398666
  38.6334160  11.4984754  20.0095937  36.6369220  14.3159242  16.1318498
  35.7280440  14.0318275  16.2290968  36.6664304  14.7358320  15.2721805
  41.8688488  17.9265831  19.9009665  41.4150815  17.0856741  19.9574856
  41.2382455  18.5627230  20.2384446  40.8121407   8.8557817  21.1310333
  40.0744164   8.3435203  21.4620575  41.0648181   8.4158199  20.3193610
  40.3121427  19.7642328  20.8359483  40.6044402  20.3247385  20.1171849
  40.8220048  20.0570889  21.5912643  40.9133035   1.6334069  21.7252102
  41.2191912   0.7731433  21.4378017  41.6385640   2.2251689  21.5251096
  27.2057391  12.0364756  20.1133700  27.0081791  11.4434117  19.3884767
  26.6504055  11.7316966  20.8309639  35.1854115  11.9287862  22.2328293
  35.2402724  10.9761699  22.1570770  34.3745317  12.0847301  22.7169592
  36.3345308  15.8567985  13.4706576  35.8964738  15.1403844  13.0112214
  37.0755749  16.0844100  12.9091668  33.1246474  10.5464922  19.9918672
  32.3114340  10.8459093  20.3983864  33.6205469  10.1520611  20.7093154
  38.7220686  11.0106747  28.8233566  39.0770074  11.2378220  29.6828032
  39.3692817  11.3425123  28.2010821  44.4518423  14.1325182  19.5282895
  44.3136322  14.3226778  18.6004084  44.0954642  14.8944565  19.9850946
  32.6160549   8.1183278  25.6079907  33.2559929   7.9772037  24.9102870
  31.7838080   7.8317791  25.2318509  44.4787803  16.2001709  24.5394166
  44.9124309  16.1076999  25.3877220  45.1919383  16.1759210  23.9014182
  33.3920853  17.4185708  21.7214899  34.1861452  16.9236028  21.5197474
  32.6812545  16.8903571  21.3582605  29.7003617  11.5628790  17.7974652
  28.7701205  11.5013245  18.0144614  29.7961089  11.0404743  17.0011293
  29.6189166   8.0883603  20.3852894  29.8795983   9.0028936  20.2762054
  30.4406338   7.6208045  20.5349507  31.0914091   9.5021360  27.5551718
  31.7637144   9.2938722  26.9064367  30.2643877   9.3043446  27.1156951
  45.3403352  16.2425410  27.0727052  45.5339242  17.1471221  27.3186327
  45.2403970  15.7832829  27.9065637  36.9939663   6.1283301  29.5717379
  36.3467578   6.8273250  29.4781856  37.7640678   6.5619445  29.9393627
  36.5640281  23.0923826  16.7438273  36.7392037  22.6211870  17.5583896
  35.8773069  23.7189593  16.9719534  37.5197344  17.3696333  22.7901574
  37.1847177  17.3297103  23.6859224  37.0201290  16.7041049  22.3171985
  31.4941588  12.7763963  28.3154155  31.3561386  12.0444202  28.9165694
  32.4046512  12.6872863  28.0338343  40.4556536  14.7152367  13.0638634
  39.8385707  13.9899195  12.9671687  39.9873024  15.4761727  12.7205708
  34.1223889  12.4883922  27.8037835  34.8323507  11.8477114  27.7624454
  34.0793197  12.7396817  28.7264016  32.8352823   9.4749140  29.6233475
  32.2990180   9.0239878  30.2755071  32.2469531   9.6095049  28.8803939
  32.2455082   8.9337791  12.1859938  31.3684548   8.8126592  11.8222185
  32.7212835   8.1423870  11.9338827  23.7657222  13.7214951  22.2801445
  24.4528262  13.4076681  21.6922461  23.6105351  14.6256316  22.0068697
  28.5691944   8.6105148  26.7086469  28.4850133   8.0030817  25.9736879
  27.7474650   9.1014166  26.7095965  35.4319008  21.2864082  19.4322459
  34.6486530  21.8285762  19.5260683  36.1311753  21.8038061  19.8316700
  38.7415658   7.0958711  22.0756664  39.2384357   6.3428674  21.7557734
  37.9702639   7.1323028  21.5099873  46.5945415  12.7999077  23.7174956
  46.5835292  13.6823792  23.3468889  45.7262795  12.4470628  23.5229493
  39.8245439  15.8530398  19.6495088  38.8901717  15.9731861  19.4799792
  40.0022107  14.9502865  19.3855097  35.3250627   9.2376094  21.8028349
  34.9548414   8.6847135  22.4909254  35.8209719   8.6334228  21.2503349
  43.2117990  11.6947718  20.1845122  43.6778442  12.5275709  20.1105424
  43.6625490  11.2292699  20.8890380  41.2794221  18.0391539  17.1831274
  41.5554065  17.9248134  18.0925148  40.4098720  17.6409024  17.1443447
  41.1834653   4.0628305  24.2236023  40.2697733   4.2932532  24.3918230
  41.6127754   4.1466749  25.0750055  40.9541111  12.2518197  26.7235917
  40.3012561  12.4994104  26.0688370  41.3321491  11.4382335  26.3898394
  38.2490451  21.2146075  18.0879136  38.7778217  20.7038530  17.4749298
  38.5118670  20.8988605  18.9524669  23.3425198  11.8015544  24.5518913
  23.3809298  11.2679135  25.3456031  22.8365491  11.2750750  23.9329890
  30.7215960   6.6480085  28.0481455  30.7857287   7.5094916  27.6358852
  30.6583081   6.0354087  27.3153813  30.1968233   8.7203218  31.6954489
  30.8240272   8.3380295  32.3092013  29.3396152   8.5017419  32.0610182
  26.9733776  10.5279647  17.6272844  27.2687217   9.6190325  17.5739898
  26.0721811  10.5067386  17.3053846  30.5028023   8.6035643  23.6100392
  29.7814608   9.2171611  23.4707866  31.2921278   9.1393408  23.5317038
  33.3054336   5.9390070  29.8841044  33.8288738   6.1852366  30.6467354
  33.0866669   6.7710105  29.4644182  28.7021617   8.2093744  17.7512169
  28.3734323   7.3291123  17.5687275  29.0560988   8.1541413  18.6388558
  37.9501196  19.8448647  22.2607155  37.8026159  18.9165354  22.4414725
  38.7754690  19.8668738  21.7764230  31.8163440   8.4966714  18.1187647
  32.1559513   9.0252635  17.3966255  32.2635561   8.8347120  18.8946213
  34.5106881   6.8803765  27.5690715  34.1703702   6.0811578  27.9711395
  33.8045887   7.1805476  26.9967548  35.1623353   3.9653077  26.0218038
  35.9849422   3.4913555  25.8996928  35.4061417   4.7443561  26.5216724
  33.8031588   6.9941336  16.3180939  34.5239950   7.3722588  15.8144656
  33.1796892   7.7130212  16.4215917  37.9462710   7.6986485  17.2539272
  38.1626325   8.5811123  16.9528100  37.4656778   7.3072698  16.5244914
  32.6861932  10.6572198  23.8310016  32.5406513  10.9712501  24.7234298
  32.2087135  11.2757098  23.2780915  34.5458315   7.6474746  23.8790906
  34.5319883   6.7515839  23.5423204  35.2630743   7.6545410  24.5129192
  36.3984445   8.0812086  25.9244033  36.1402223   9.0029157  25.9228364
  35.8669486   7.6842521  26.6144498  41.3430634  21.1862873  18.7034119
  41.5167512  20.6209296  17.9507971  41.8359525  21.9863768  18.5213609
  27.1607594  13.1977542  26.7697678  26.6161062  13.9737350  26.9017952
  28.0386944  13.5448347  26.6116799  33.9495211   6.5289126  19.1478476
  34.0711122   5.6005772  19.3469364  33.6597253   6.5427812  18.2356792
  36.8186401   4.2144037  22.2845196  36.8408098   4.2783370  21.3297175
  37.2354460   3.3748545  22.4785702  47.1970025  13.9499296  20.3224419
  47.6401171  13.2006621  19.9243542  46.3196536  13.9409432  19.9398151
  42.3305807  20.5029638  15.8031017  43.0256711  21.1236330  16.0218332
  42.6728957  19.6524989  16.0783395  27.9473616  12.3247439  29.6627834
  27.2055352  12.4730074  30.2492465  27.6266360  12.5855704  28.7994584
  44.2297230  17.9529343  17.3318348  44.7548554  18.2916616  16.6067668
  44.1419582  17.0176358  17.1481482  26.5938835  18.1299194  22.6527163
  25.7570743  17.7021368  22.4711164  26.5662480  18.3231637  23.5897954
  33.4336290   8.0421123  33.3568409  33.4824446   8.9183246  32.9746178
  33.9758804   7.4998517  32.7840052  44.0389011  15.4354713  29.9502274
  44.0887016  15.2704721  30.8917797  43.9302934  14.5681972  29.5600155
  32.9225270  18.1143259  17.2394363  33.0713390  18.7978723  16.5861036
  33.7291713  18.0948349  17.7543819  41.3292773  11.4185641  31.2661581
  42.2302636  11.2792106  30.9745579  41.4040748  11.5840096  32.2059758
  35.6635579   8.7952496  30.1114767  34.7938888   9.0886062  29.8397356
  35.8995059   9.3792941  30.8322031  46.7402890  15.4204534  22.7146866
  47.5749781  15.8594338  22.8784426  46.8762019  14.9443188  21.8955112
  43.7894396  12.9784269  28.6624354  44.2648518  13.1711916  27.8543205
  42.8659961  13.0343455  28.4167738  30.6777903  14.1408436  18.2455432
  30.4323944  13.2370766  18.4435642  30.8473817  14.1425587  17.3034910
  38.3674612   5.0132113  27.6280188  38.8856556   5.7493140  27.3026676
  38.0129745   5.3196106  28.4626947  29.9473550   9.8736794  15.7441594
  29.2542795   9.9481149  15.0881630  29.7025302   9.1097138  16.2663111
  38.6187207   1.4332395  23.1481084  38.8988960   0.7655584  23.7741511
  39.4037814   1.6261491  22.6355748  36.4220675  20.6091389  14.7106111
  35.8494642  21.2281576  14.2576583  36.9953469  21.1590751  15.2446033
  42.4896065   9.8550029  26.8952659  43.4413488   9.9548127  26.9164883
  42.3199515   9.0628298  27.4050744  40.5110444   6.9405613  27.0812060
  39.9160377   7.2210625  26.3858549  40.2260141   7.4299513  27.8528801
  39.6417935  20.8928539  15.8414693  40.5748608  20.8274101  16.0447568
  39.5541148  21.7284806  15.3829226  42.2705952  20.2094410  12.8018640
  42.1919583  19.8754273  13.6954398  43.0915618  20.7016178  12.8010113
  44.9684143  13.0756149  26.0094959  44.9360463  12.1372150  26.1954643
  45.5784766  13.1540186  25.2760784  36.8067474  11.9452202  12.0522163
  37.7526578  11.8158410  12.1210581  36.4281719  11.2066864  12.5291591
  45.1178631   9.8667192  26.0553242  44.6017680   9.0825649  25.8683171
  46.0018580   9.5385909  26.2199762  42.7789358   3.6108208  22.0149055
  42.5814179   3.3023296  22.8992387  43.3889064   4.3369847  22.1446985
  50.7860693  14.1372156  25.1500996  51.5164081  13.8757444  25.7108699
  50.1767638  13.4000878  25.1903064  48.8675990  12.2780018  25.7475447
  48.1409153  12.1435983  25.1391939  48.4523277  12.5856847  26.5532165
  34.9910391   9.8702178  11.9877048  34.0841846   9.5735291  12.0639762
  35.2686372   9.5731996  11.1211335  25.9088331  11.1908542  22.4376095
  25.5891115  10.3373850  22.1450469  25.3621759  11.4057120  23.1934062
  29.6868239  13.9070983  26.1545601  29.9054248  14.8388091  26.1733635
  30.0994012  13.5478957  26.9400405  36.6072456   4.4139068  18.1421290
  35.7973185   4.0686153  18.5176536  37.2956873   4.1046612  18.7308901
  38.5363005   3.4917115  19.7645586  39.0894043   3.9112568  20.4235609
  38.7733091   2.5652863  19.8068542  34.5596104   9.4804189  35.5448350
  34.4592831  10.4298546  35.4760441  34.3417646   9.1522427  34.6724420
  33.7609175   6.7289114  12.1289028  34.6228339   7.0544012  12.3884845
  33.9459520   5.9420610  11.6162093  25.7776591  14.8111453  24.4069216
  25.0840063  14.3965406  23.8939171  26.5249582  14.8531990  23.8102635
  41.9141812   5.6017640  19.2724251  41.3340481   6.2602444  18.8902303
  41.6477745   4.7794985  18.8611668  40.3645378   5.0022698  21.4745571
  40.8645157   5.1139232  20.6659890  41.0080986   4.6983751  22.1146379
  34.4227374  12.9101327  34.3613412  33.9394456  13.7101688  34.5677301
  34.5088313  12.9209272  33.4080856  27.6913334  14.7429707  22.2835231
  27.6684022  14.8417394  21.3317114  28.0013970  15.5894858  22.6052397
  40.6966690   7.7617730  18.3280599  39.8092545   8.0467381  18.1100794
  41.1120679   7.6011494  17.4807876  44.0481226   7.7864251  22.0434938
  44.8241616   8.2760704  22.3159555  43.3229360   8.2122306  22.5006808
  46.4853785   8.4991871  23.1008879  47.0798275   8.2587607  22.3902187
  46.5580368   7.7799001  23.7282415  39.8409903  17.5262405  12.4228619
  40.5445753  17.7312408  13.0386274  39.1172552  18.0939167  12.6877702
  40.6707714  13.2772266  18.5430889  40.6142915  13.7340818  17.7038521
  41.2236056  12.5162951  18.3653732  44.4812520   9.0661998  19.3681008
  44.2249454   8.6658634  20.1989216  43.8565388   9.7805792  19.2431148
  48.7924857  11.8058072  21.8752300  48.2324415  11.8751261  22.6483862
  48.1868361  11.6299056  21.1551796  41.7496601  17.9644934  14.4727079
  42.5842205  17.5326133  14.2904554  41.5880944  17.7926948  15.4003973
  41.4042493  14.4677048  15.8383418  41.3491297  14.3021319  14.8971862
  40.7788548  15.1753081  15.9945608  26.1935008   9.7045112  29.6644840
  26.8393872   9.1944066  30.1532066  25.9852159  10.4413794  30.2388266
  34.7138618   3.9685157  15.4168737  34.7017288   4.9126997  15.5737007
  35.6062040   3.7855302  15.1228198  38.5290738   0.5627933  19.6714673
  37.7623134   0.0086420  19.8171356  38.9401443   0.6349802  20.5328825
  30.5332499   6.8512729  33.7619855  31.3963960   6.4949534  33.9723179
  29.9597910   6.5126624  34.4495259  50.3780876  28.4814585  24.5682256
  51.0159286  28.3621333  23.8645596  50.2601719  29.4295429  24.6270208
  47.1870582  28.4342014  24.5043780  46.8489094  28.3183078  23.6164315
  48.0560350  28.0333179  24.4844786  43.0457398  30.2877490  20.4940671
  42.4822263  30.1967427  19.7256959  42.9309793  29.4677394  20.9743164
  48.6256957  33.9548458  15.8055136  47.9744936  34.5402538  15.4189150
  49.4201319  34.4854653  15.8650174  42.5512584  31.0437595  16.2042271
  43.3243460  30.4966582  16.0655146  42.9037983  31.9081844  16.4156732
  44.8878862  27.2030261  13.8360720  45.1404382  26.6811782  13.0744183
  43.9503421  27.0396406  13.9387404  49.9322144  26.2066039  21.6435464
  50.7185234  25.7885462  21.2925881  50.1960849  27.1112131  21.8117112
  50.1032222  31.6438890  16.3424120  49.4678055  31.7173516  17.0545025
  49.7729628  32.2332488  15.6643200  55.3330571  26.1441272  22.5468442
  56.0655743  25.5740489  22.7806272  54.5769927  25.7562873  22.9874948
  44.6075150  29.1058367  16.0385095  44.4911408  28.4303270  16.7066180
  44.7177410  28.6190741  15.2217248  46.9506691  28.5668514  19.7431785
  46.5864898  28.0399135  20.4544706  47.8073807  28.1766983  19.5698270
  52.8555992  19.8562847  27.0063051  52.5239317  20.7258258  26.7824266
  52.2601605  19.5399131  27.6857081  46.5912178  23.5958414  14.7393133
  46.7586580  24.4638650  15.1063604  46.4009347  23.7585695  13.8154422
  49.3487511  32.0575393  26.4058964  49.0488234  32.9600431  26.2974771
  49.0038571  31.7907576  27.2580116  52.7484655  24.5757933  24.0856401
  51.8401532  24.5073341  23.7915162  52.6972251  25.0529878  24.9138226
  46.5701399  26.0516071  15.7239800  46.4501024  26.4973122  16.5625280
  45.8753987  26.4001389  15.1653338  44.3308291  38.8219713  19.3729931
  44.2532321  39.7727538  19.4518412  43.7269935  38.4765585  20.0304858
  54.6146302  22.7774371  25.8634275  53.9720682  23.0706904  25.2174069
  54.1101230  22.6627292  26.6687471  52.2686465  26.5237544  16.5520134
  53.1804321  26.7564931  16.3767832  51.7596112  27.1074589  15.9895213
  50.8756047  31.5063363  23.9433715  50.2464910  31.6709077  23.2409783
  50.4881710  31.9204972  24.7144679  54.7545279  32.4417801  21.2978079
  54.0696318  32.8216702  20.7475113  54.8389129  33.0513127  22.0310027
  50.0557748  23.5439147  29.2196157  49.8118680  24.2981208  28.6830433
  50.3317679  23.9224495  30.0543404  52.0096211  30.0877760  27.8973423
  52.2213106  30.7309520  27.2207804  51.9625959  29.2540076  27.4295353
  49.6122440  22.6995580  24.8009995  48.7506919  22.9976834  25.0926732
  49.6384875  22.9165979  23.8691028  46.4284009  31.2437771  21.2083801
  46.8922355  31.5225474  20.4188423  46.1640807  30.3421215  21.0256891
  45.3652895  27.3660923  18.0173366  46.0676939  27.8181967  18.4847292
  45.0333524  26.7244742  18.6453259  53.1242039  32.9649715  26.0695780
  53.9459483  32.5629902  25.7878462  53.1204442  32.8617949  27.0211896
  41.0592975  25.9889055  20.2773976  40.2624138  26.1007749  20.7957472
  40.8318567  26.3275707  19.4114866  61.2148032  29.3088464  22.4180752
  60.4611740  28.7395862  22.2624756  61.3495573  29.2751128  23.3651386
  46.6046660  34.1801866  18.0935471  46.4692335  35.0253402  18.5220319
  47.1456473  34.3821144  17.3301405  40.0576057  31.6977304  18.6663396
  40.5700578  32.4920554  18.8168961  40.7098770  31.0003594  18.5996997
  49.9539124  17.7032428  26.6234364  49.6103393  18.5934069  26.5473475
  50.3218086  17.5134085  25.7603949  38.0224974  30.0265958  19.4422967
  38.8600196  30.4362967  19.2256674  38.2003242  29.0865400  19.4123160
  49.9189406  27.6941039  15.1306800  49.4036030  28.4645644  15.3695187
  49.6466715  27.0206175  15.7539861  47.5036517  22.5390740  20.1892038
  46.6478114  22.1497590  20.0097677  47.9163469  22.6182700  19.3291823
  49.0335664  20.0737083  24.5883598  48.5300460  20.0367218  23.7751403
  49.3266271  20.9829826  24.6480254  45.2778550  20.1575813  23.5949779
  46.1431547  19.9618621  23.2355669  45.3456059  19.9286164  24.5219136
  54.8923680  30.4473394  17.0659973  54.1153123  30.1084553  16.6215135
  55.5715161  30.4526017  16.3914938  49.7075709  25.5668131  16.9566581
  49.4025845  25.8814280  17.8076724  50.6606152  25.6449551  16.9993914
  48.1522141  31.7258354  18.6059535  47.6243503  30.9911114  18.2932772
  47.6509644  32.5033031  18.3599503  53.1314987  29.9207375  23.7226581
  52.4738662  30.6106636  23.8106710  53.9355387  30.3103807  24.0660567
  42.8840869  22.3878021  20.9666146  43.4584621  22.1653202  20.2339339
  43.4711851  22.4566715  21.7194747  51.9420446  28.2751747  21.7730523
  52.4552328  28.9081739  22.2752232  52.5921670  27.6752943  21.4073883
  43.2110456  24.4182482  14.9862031  42.3747768  24.7557168  15.3071306
  43.0715226  24.2831461  14.0489168  45.1863537  19.2619269  19.6941216
  44.5327949  18.9468287  19.0697830  45.1444011  18.6395010  20.4201039
  46.2974742  29.5438565  11.6094508  45.3901803  29.3127818  11.8085657
  46.7945774  28.7476184  11.7968489  49.2042820  38.2536072  14.5291194
  48.5304519  38.5567769  15.1376152  49.5908642  39.0565152  14.1796651
  48.4201277  25.7501203  24.0188863  47.5023838  25.9716150  23.8610551
  48.8361421  25.8247514  23.1600571  49.2036325  27.1492619  19.1491543
  49.9508144  27.6614016  18.8398666  49.4727914  26.8276671  20.0095937
  47.4762975  29.6451159  16.1318498  46.5674194  29.3610192  16.2290968
  47.5058059  30.0650238  15.2721805  52.7082242  33.2557749  19.9009665
  52.2544569  32.4148659  19.9574856  52.0776209  33.8919147  20.2384446
  51.6515162  24.1849735  21.1310333  50.9137919  23.6727121  21.4620575
  51.9041935  23.7450117  20.3193610  51.1515182  35.0934246  20.8359483
  51.4438156  35.6539303  20.1171849  51.6613802  35.3862807  21.5912643
  51.7526789  16.9625987  21.7252102  52.0585666  16.1023350  21.4378017
  52.4779394  17.5543607  21.5251096  38.0451145  27.3656674  20.1133700
  37.8475545  26.7726034  19.3884767  37.4897809  27.0608884  20.8309639
  46.0247869  27.2579780  22.2328293  46.0796479  26.3053616  22.1570770
  45.2139071  27.4139219  22.7169592  47.1739063  31.1859903  13.4706576
  46.7358493  30.4695762  13.0112214  47.9149504  31.4136018  12.9091668
  43.9640229  25.8756840  19.9918672  43.1508094  26.1751010  20.3983864
  44.4599223  25.4812529  20.7093154  55.2912178  29.4617100  19.5282895
  55.1530076  29.6518696  18.6004084  54.9348396  30.2236483  19.9850946
  55.3181557  31.5293627  24.5394166  55.7518064  31.4368916  25.3877220
  56.0313138  31.5051128  23.9014182  40.5397371  26.8920707  17.7974652
  39.6094959  26.8305163  18.0144614  40.6354843  26.3696660  17.0011293
  40.4582920  23.4175520  20.3852894  40.7189737  24.3320854  20.2762054
  41.2800092  22.9499963  20.5349507  56.1797107  31.5717328  27.0727052
  56.3732997  32.4763138  27.3186327  56.0797725  31.1124747  27.9065637
  47.8333417  21.4575218  29.5717379  47.1861332  22.1565168  29.4781856
  48.6034433  21.8911362  29.9393627  47.4034036  38.4215744  16.7438273
  47.5785791  37.9503787  17.5583896  46.7166824  39.0481510  16.9719534
  48.3591099  32.6988250  22.7901574  48.0240931  32.6589020  23.6859224
  47.8595044  32.0332966  22.3171985  51.2950290  30.0444285  13.0638634
  50.6779461  29.3191113  12.9671687  50.8266779  30.8053645  12.7205708
  43.0848836  24.2629709  12.1859938  42.2078303  24.1418510  11.8222185
  43.5606589  23.4715787  11.9338827  46.2712762  36.6155999  19.4322459
  45.4880284  37.1577680  19.5260683  46.9705507  37.1329979  19.8316700
  49.5809412  22.4250629  22.0756664  50.0778112  21.6720591  21.7557734
  48.8096394  22.4614946  21.5099873  57.4339170  28.1290994  23.7174956
  57.4229046  29.0115710  23.3468889  56.5656549  27.7762545  23.5229493
  50.6639193  31.1822316  19.6495088  49.7295472  31.3023779  19.4799792
  50.8415862  30.2794783  19.3855097  46.1644381  24.5668012  21.8028349
  45.7942169  24.0139052  22.4909254  46.6603474  23.9626145  21.2503349
  54.0511744  27.0239635  20.1845122  54.5172197  27.8567627  20.1105424
  54.5019245  26.5584617  20.8890380  52.1187976  33.3683457  17.1831274
  52.3947819  33.2540051  18.0925148  51.2492474  32.9700942  17.1443447
  52.0228407  19.3920222  24.2236023  51.1091487  19.6224449  24.3918230
  52.4521509  19.4758666  25.0750055  51.7934866  27.5810114  26.7235917
  51.1406316  27.8286022  26.0688370  52.1715246  26.7674253  26.3898394
  48.7542040  37.6169808  20.8264087  48.9364434  36.7991463  21.2891840
  49.5775026  37.8337500  20.3888977  49.0884205  36.5437993  18.0879136
  49.6171972  36.0330447  17.4749298  49.3512425  36.2280523  18.9524669
  42.4439953  37.5953109  20.8476912  41.7750328  38.0799237  20.3640952
  42.3052823  37.8422330  21.7620290  37.8127530  25.8571564  17.6272844
  38.1080971  24.9482243  17.5739898  36.9115566  25.8359304  17.3053846
  51.7848517  35.3787848  26.0602802  50.8378853  35.2593200  25.9881129
  52.1331290  34.4910346  26.1429064  39.5415372  23.5385662  17.7512169
  39.2128078  22.6583041  17.5687275  39.8954742  23.4833331  18.6388558
  48.7894951  35.1740565  22.2607155  48.6419913  34.2457272  22.4414725
  49.6148444  35.1960655  21.7764230  42.6557195  23.8258632  18.1187647
  42.9953267  24.3544553  17.3966255  43.1029315  24.1639038  18.8946213
  52.3929072  35.9969123  23.3472027  53.3175620  35.7911985  23.2096478
  52.2244376  35.7485525  24.2561369  46.0017108  19.2944995  26.0218038
  46.8243177  18.8205473  25.8996928  46.2455171  20.0735479  26.5216724
  44.6425342  22.3233253  16.3180939  45.3633705  22.7014506  15.8144656
  44.0190646  23.0422130  16.4215917  48.7856465  23.0278402  17.2539272
  49.0020079  23.9103040  16.9528100  48.3050532  22.6364616  16.5244914
  45.3852069  22.9766664  23.8790906  45.3713638  22.0807757  23.5423204
  46.1024497  22.9837327  24.5129192  47.2378200  23.4104004  25.9244033
  46.9795978  24.3321074  25.9228364  46.7063240  23.0134438  26.6144498
  52.1824389  36.5154791  18.7034119  52.3561266  35.9501213  17.9507971
  52.6753280  37.3155686  18.5213609  44.7888965  21.8581044  19.1478476
  44.9104876  20.9297690  19.3469364  44.4991007  21.8719730  18.2356792
  47.6580155  19.5435954  22.2845196  47.6801852  19.6075287  21.3297175
  48.0748214  18.7040463  22.4785702  58.0363780  29.2791214  20.3224419
  58.4794926  28.5298539  19.9243542  57.1590290  29.2701350  19.9398151
  53.1699561  35.8321555  15.8031017  53.8650466  36.4528248  16.0218332
  53.5122711  34.9816906  16.0783395  55.0690984  33.2821261  17.3318348
  55.5942308  33.6208534  16.6067668  54.9813337  32.3468276  17.1481482
  54.8782765  30.7646631  29.9502274  54.9280770  30.5996638  30.8917797
  54.7696689  29.8973890  29.5600155  43.7619024  33.4435176  17.2394363
  43.9107144  34.1270641  16.5861036  44.5685468  33.4240267  17.7543819
  52.1686528  26.7477559  31.2661581  53.0696391  26.6084024  30.9745579
  52.2434502  26.9132014  32.2059758  56.3800962  33.1843572  30.1944296
  56.0885770  33.5473553  31.0307757  55.7673093  32.4710581  30.0157628
  57.5796645  30.7496452  22.7146866  58.4143536  31.1886256  22.8784426
  57.7155773  30.2735105  21.8955112  54.6288150  28.3076187  28.6624354
  55.1042272  28.5003833  27.8543205  53.7053716  28.3635373  28.4167738
  41.5171657  29.4700354  18.2455432  41.2717699  28.5662684  18.4435642
  41.6867572  29.4717505  17.3034910  49.2068367  20.3424031  27.6280188
  49.7250311  21.0785057  27.3026676  48.8523500  20.6488024  28.4626947
  40.7867305  25.2028712  15.7441594  40.0936550  25.2773067  15.0881630
  40.5419056  24.4389055  16.2663111  49.4580961  16.7624313  23.1481084
  49.7382715  16.0947502  23.7741511  50.2431568  16.9553409  22.6355748
  47.2614430  35.9383307  14.7106111  46.6888397  36.5573494  14.2576583
  47.8347223  36.4882669  15.2446033  53.3289819  25.1841947  26.8952659
  54.2807242  25.2840045  26.9164883  53.1593270  24.3920216  27.4050744
  51.3504199  22.2697530  27.0812060  50.7554131  22.5502543  26.3858549
  51.0653896  22.7591431  27.8528801  50.4811689  36.2220457  15.8414693
  51.4142363  36.1566019  16.0447568  50.3934902  37.0576724  15.3829226
  53.1099706  35.5386327  12.8018640  53.0313338  35.2046191  13.6954398
  53.9309373  36.0308095  12.8010113  55.8077897  28.4048067  26.0094959
  55.7754217  27.4664067  26.1954643  56.4178521  28.4832103  25.2760784
  47.6461228  27.2744120  12.0522163  48.5920333  27.1450328  12.1210581
  47.2675473  26.5358782  12.5291591  55.9572386  25.1959110  26.0553242
  55.4411434  24.4117567  25.8683171  56.8412334  24.8677827  26.2199762
  53.6183113  18.9400126  22.0149055  53.4207934  18.6315214  22.8992387
  54.2282818  19.6661765  22.1446985  61.6254447  29.4664074  25.1500996
  62.3557836  29.2049362  25.7108699  61.0161393  28.7292796  25.1903064
  59.7069744  27.6071936  25.7475447  58.9802908  27.4727901  25.1391939
  59.2917031  27.9148765  26.5532165  45.8304145  25.1994096  11.9877048
  44.9235601  24.9027209  12.0639762  46.1080126  24.9023914  11.1211335
  47.4466211  19.7430986  18.1421290  46.6366939  19.3978071  18.5176536
  48.1350628  19.4338530  18.7308901  49.3756759  18.8209033  19.7645586
  49.9287798  19.2404486  20.4235609  49.6126846  17.8944781  19.8068542
  44.6002930  22.0581031  12.1289028  45.4622094  22.3835930  12.3884845
  44.7853274  21.2712527  11.6162093  52.7535566  20.9309558  19.2724251
  52.1734235  21.5894362  18.8902303  52.4871499  20.1086902  18.8611668
  51.2039133  20.3314615  21.4745571  51.7038911  20.4431150  20.6659890
  51.8474741  20.0275668  22.1146379  51.5360444  23.0909648  18.3280599
  50.6486299  23.3759299  18.1100794  51.9514433  22.9303412  17.4807876
  54.8874980  23.1156169  22.0434938  55.6635371  23.6052622  22.3159555
  54.1623115  23.5414223  22.5006808  57.3247539  23.8283788  23.1008879
  57.9192030  23.5879524  22.3902187  57.3974123  23.1090919  23.7282415
  50.6803658  32.8554323  12.4228619  51.3839508  33.0604325  13.0386274
  49.9566307  33.4231085  12.6877702  51.5101468  28.6064184  18.5430889
  51.4536669  29.0632736  17.7038521  52.0629811  27.8454869  18.3653732
  55.3206274  24.3953916  19.3681008  55.0643208  23.9950552  20.1989216
  54.6959142  25.1097710  19.2431148  59.6318612  27.1349989  21.8752300
  59.0718170  27.2043179  22.6483862  59.0262115  26.9590974  21.1551796
  52.5890355  33.2936852  14.4727079  53.4235959  32.8618050  14.2904554
  52.4274698  33.1218866  15.4003973  52.2436247  29.7968965  15.8383418
  52.1885051  29.6313237  14.8971862  51.6182303  30.5044998  15.9945608
  45.5532373  19.2977074  15.4168737  45.5411043  20.2418914  15.5737007
  46.4455795  19.1147220  15.1228198  49.3684492  15.8919851  19.6714673
  48.6016888  15.3378338  19.8171356  49.7795197  15.9641720  20.5328825
  61.2174630  43.8106503  24.5682256  61.8553040  43.6913250  23.8645596
  61.0995473  44.7587347  24.6270208  58.0264337  43.7633931  24.5043780
  57.6882848  43.6474996  23.6164315  58.8954105  43.3625096  24.4844786
  53.8851152  45.6169408  20.4940671  53.3216017  45.5259345  19.7256959
  53.7703547  44.7969312  20.9743164  59.4650711  49.2840375  15.8055136
  58.8138691  49.8694456  15.4189150  60.2595074  49.8146570  15.8650174
  53.3906338  46.3729512  16.2042271  54.1637214  45.8258500  16.0655146
  53.7431737  47.2373762  16.4156732  55.7272616  42.5322179  13.8360720
  55.9798137  42.0103700  13.0744183  54.7897175  42.3688324  13.9387404
  60.7715899  41.5357957  21.6435464  61.5578988  41.1177380  21.2925881
  61.0354603  42.4404049  21.8117112  60.9425976  46.9730807  16.3424120
  60.3071809  47.0465434  17.0545025  60.6123383  47.5624406  15.6643200
  66.1724326  41.4733190  22.5468442  66.9049498  40.9032407  22.7806272
  65.4163682  41.0854791  22.9874948  55.4468905  44.4350285  16.0385095
  55.3305163  43.7595188  16.7066180  55.5571165  43.9482658  15.2217248
  57.7900446  43.8960432  19.7431785  57.4258653  43.3691053  20.4544706
  58.6467562  43.5058901  19.5698270  63.6949746  35.1854764  27.0063051
  63.3633071  36.0550175  26.7824266  63.0995360  34.8691048  27.6857081
  57.4305933  38.9250331  14.7393133  57.5980335  39.7930568  15.1063604
  57.2403102  39.0877613  13.8154422  60.1881266  47.3867310  26.4058964
  59.8881989  48.2892349  26.2974771  59.8432325  47.1199493  27.2580116
  53.6393747  43.8381107  22.4395668  52.7144244  43.7057321  22.6473360
  53.8878160  44.6175326  22.9365610  63.5878410  39.9049850  24.0856401
  62.6795287  39.8365259  23.7915162  63.5366005  40.3821795  24.9138226
  57.4095154  41.3807989  15.7239800  57.2894779  41.8265040  16.5625280
  56.7147742  41.7293307  15.1653338  55.1702046  54.1511631  19.3729931
  55.0926075  55.1019456  19.4518412  54.5663689  53.8057503  20.0304858
  65.4540056  38.1066289  25.8634275  64.8114436  38.3998822  25.2174069
  64.9494985  37.9919209  26.6687471  63.1080220  41.8529462  16.5520134
  64.0198076  42.0856849  16.3767832  62.5989867  42.4366506  15.9895213
  61.3920987  46.2754090  30.1881427  61.8004343  45.8336500  29.4436059
  60.6698249  45.7006717  30.4415619  61.7149802  46.8355280  23.9433715
  61.0858664  47.0000995  23.2409783  61.3275464  47.2496890  24.7144679
  65.5939034  47.7709718  21.2978079  64.9090072  48.1508620  20.7475113
  65.6782883  48.3805045  22.0310027  60.8951503  38.8731065  29.2196157
  60.6512435  39.6273126  28.6830433  61.1711433  39.2516413  30.0543404
  62.8489965  45.4169677  27.8973423  63.0606861  46.0601437  27.2207804
  62.8019714  44.5831994  27.4295353  60.4516194  38.0287498  24.8009995
  59.5900673  38.3268752  25.0926732  60.4778629  38.2457897  23.8691028
  57.2677764  46.5729689  21.2083801  57.7316109  46.8517392  20.4188423
  57.0034562  45.6713133  21.0256891  54.1601845  46.1201170  24.1463564
  54.7303202  46.5488438  23.5081048  54.7509957  45.8383755  24.8447749
  56.2046650  42.6952841  18.0173366  56.9070693  43.1473885  18.4847292
  55.8727278  42.0536660  18.6453259  63.9635793  48.2941633  26.0695780
  64.7853237  47.8921820  25.7878462  63.9598196  48.1909867  27.0211896
  51.8986729  41.3180973  20.2773976  51.1017893  41.4299667  20.7957472
  51.6712321  41.6567625  19.4114866  72.0541786  44.6380381  22.4180752
  71.3005495  44.0687779  22.2624756  72.1889328  44.6043046  23.3651386
  57.4440415  49.5093784  18.0935471  57.3086089  50.3545319  18.5220319
  57.9850227  49.7113061  17.3301405  50.8969812  47.0269222  18.6663396
  51.4094332  47.8212472  18.8168961  51.5492525  46.3295512  18.5996997
  52.7064697  50.1434978  20.7486149  52.8831325  51.0652943  20.5607133
  53.5021530  49.8293397  21.1780529  59.0708891  50.1317350  32.2235813
  58.6272745  49.3453729  31.9056717  59.7326104  50.3196501  31.5579704
  53.8296012  51.6613152  26.7496492  54.3803437  51.5330215  25.9773485
  52.9907488  51.9608041  26.3991384  61.1690129  50.4120150  30.2517214
  61.1508604  51.2329031  29.7597483  62.0910049  50.2874225  30.4767355
  60.7932878  33.0324345  26.6234364  60.4497147  33.9225987  26.5473475
  61.1611841  32.8426003  25.7603949  48.8618729  45.3557876  19.4422967
  49.6993951  45.7654884  19.2256674  49.0396996  44.4157318  19.4123160
  60.7583161  43.0232957  15.1306800  60.2429784  43.7937561  15.3695187
  60.4860469  42.3498093  15.7539861  58.3430272  37.8682657  20.1892038
  57.4871868  37.4789508  20.0097677  58.7557224  37.9474618  19.3291823
  59.8729418  35.4029001  24.5883598  59.3694214  35.3659136  23.7751403
  60.1660025  36.3121743  24.6480254  56.1172304  35.4867730  23.5949779
  56.9825301  35.2910539  23.2355669  56.1849813  35.2578082  24.5219136
  65.7317435  45.7765311  17.0659973  64.9546878  45.4376471  16.6215135
  66.4108916  45.7817934  16.3914938  60.5469464  40.8960049  16.9566581
  60.2419600  41.2106198  17.8076724  61.4999906  40.9741469  16.9993914
  58.9915896  47.0550272  18.6059535  58.4637257  46.3203032  18.2932772
  58.4903399  47.8324948  18.3599503  63.9708742  45.2499292  23.7226581
  63.3132416  45.9398554  23.8106710  64.7749141  45.6395724  24.0660567
  53.7234623  37.7169938  20.9666146  54.2978375  37.4945120  20.2339339
  54.3105606  37.7858633  21.7194747  62.7814201  43.6043665  21.7730523
  63.2946082  44.2373657  22.2752232  63.4315425  43.0044861  21.4073883
  54.0504211  39.7474399  14.9862031  53.2141523  40.0849086  15.3071306
  53.9108980  39.6123379  14.0489168  56.0257291  34.5911187  19.6941216
  55.3721703  34.2760204  19.0697830  55.9837765  33.9686928  20.4201039
  57.1368496  44.8730482  11.6094508  56.2295558  44.6419736  11.8085657
  57.6339528  44.0768101  11.7968489  60.0436575  53.5827989  14.5291194
  59.3698274  53.8859686  15.1376152  60.4302397  54.3857070  14.1796651
  59.2595032  41.0793121  24.0188863  58.3417593  41.3008068  23.8610551
  59.6755175  41.1539431  23.1600571  60.0430079  42.4784536  19.1491543
  60.7901898  42.9905934  18.8398666  60.3121669  42.1568589  20.0095937
  58.3156729  44.9743077  16.1318498  57.4067949  44.6902110  16.2290968
  58.3451813  45.3942156  15.2721805  63.5475997  48.5849667  19.9009665
  63.0938324  47.7440576  19.9574856  62.9169964  49.2211065  20.2384446
  62.4908916  39.5141653  21.1310333  61.7531673  39.0019039  21.4620575
  62.7435690  39.0742034  20.3193610  61.9908936  50.4226163  20.8359483
  62.2831910  50.9831220  20.1171849  62.5007557  50.7154724  21.5912643
  62.5920544  32.2917905  21.7252102  62.8979421  31.4315268  21.4378017
  63.3173149  32.8835525  21.5251096  48.8844900  42.6948591  20.1133700
  48.6869300  42.1017952  19.3884767  48.3291564  42.3900801  20.8309639
  56.8641623  42.5871698  22.2328293  56.9190233  41.6345534  22.1570770
  56.0532826  42.7431137  22.7169592  58.0132817  46.5151821  13.4706576
  57.5752247  45.7987680  13.0112214  58.7543258  46.7427936  12.9091668
  54.8033983  41.2048757  19.9918672  53.9901849  41.5042928  20.3983864
  55.2992978  40.8104446  20.7093154  56.9542561  51.2006514  21.9252937
  56.9118740  51.4267361  20.9961469  57.8705260  50.9669889  22.0738738
  60.4008195  41.6690582  28.8233566  60.7557583  41.8962055  29.6828032
  61.0480326  42.0008959  28.2010821  66.1305932  44.7909018  19.5282895
  65.9923831  44.9810614  18.6004084  65.7742151  45.5528401  19.9850946
  54.2948058  38.7767113  25.6079907  54.9347437  38.6355872  24.9102870
  53.4625589  38.4901626  25.2318509  66.1575312  46.8585545  24.5394166
  66.5911818  46.7660834  25.3877220  66.8706892  46.8343045  23.9014182
  55.0708362  48.0769543  21.7214899  55.8648961  47.5819864  21.5197474
  54.3600054  47.5487407  21.3582605  59.8903207  50.4587639  26.0727267
  59.9440229  51.0278575  26.8404983  59.0217988  50.6289524  25.7081304
  51.3791126  42.2212625  17.7974652  50.4488714  42.1597081  18.0144614
  51.4748598  41.6988578  17.0011293  51.2976675  38.7467438  20.3852894
  51.5583492  39.6612771  20.2762054  52.1193847  38.2791881  20.5349507
  67.0190861  46.9009245  27.0727052  67.2126751  47.8055056  27.3186327
  66.9191479  46.4416665  27.9065637  62.0805970  47.0515988  32.6467932
  61.9291476  46.8226540  31.7298016  62.0710649  48.0086590  32.6599277
  57.6479638  48.6498565  25.4012737  57.5090724  48.2817350  26.2738675
  56.8594234  49.1646205  25.2296694  58.2427790  53.7507662  16.7438273
  58.4179546  53.2795705  17.5583896  57.5560578  54.3773428  16.9719534
  59.1984853  48.0280168  22.7901574  58.8634686  47.9880938  23.6859224
  58.6988799  47.3624884  22.3171985  62.1344045  45.3736202  13.0638634
  61.5173216  44.6483031  12.9671687  61.6660533  46.1345563  12.7205708
  63.7898177  50.0835111  30.7244414  63.7310723  49.3994331  30.0574997
  64.1917695  50.8254101  30.2725040  52.8088875  56.8997025  23.5178133
  53.0485474  57.5315549  24.1957152  51.9658072  56.5485065  23.8043492
  53.9242591  39.5921627  12.1859938  53.0472057  39.4710428  11.8222185
  54.4000344  38.8007705  11.9338827  63.7915584  48.0474695  28.9558394
  62.9042363  47.7100617  29.0784793  64.3614135  47.3157726  29.1927159
  57.3216737  52.7076147  25.9219637  57.2486909  53.5131119  26.4338942
  56.8794130  52.9068113  25.0967659  57.1106517  51.9447917  19.4322459
  56.3274039  52.4869597  19.5260683  57.8099262  52.4621897  19.8316700
  60.4203167  37.7542547  22.0756664  60.9171866  37.0012509  21.7557734
  59.6490148  37.7906863  21.5099873  68.2732924  43.4582912  23.7174956
  68.2622801  44.3407628  23.3468889  67.4050304  43.1054463  23.5229493
  59.7815421  52.6062981  28.0777796  60.4943393  53.2410446  28.0053697
  59.2905449  52.7026847  27.2617798  61.5032948  46.5114234  19.6495088
  60.5689226  46.6315696  19.4799792  61.6809616  45.6086701  19.3855097
  57.0038136  39.8959930  21.8028349  56.6335923  39.3430970  22.4909254
  57.4997228  39.2918063  21.2503349  64.8905499  42.3531553  20.1845122
  65.3565951  43.1859545  20.1105424  65.3412999  41.8876535  20.8890380
  54.8327334  50.3557425  28.8983367  55.5336794  50.9893908  29.0512761
  54.3622449  50.6972156  28.1379006  62.9581730  48.6975374  17.1831274
  63.2341574  48.5831969  18.0925148  62.0886229  48.2992859  17.1443447
  62.8622162  34.7212140  24.2236023  61.9485242  34.9516367  24.3918230
  63.2915263  34.8050584  25.0750055  62.6328620  42.9102032  26.7235917
  61.9800070  43.1577939  26.0688370  63.0109000  42.0966170  26.3898394
  59.5935794  52.9461725  20.8264087  59.7758189  52.1283381  21.2891840
  60.4168780  53.1629417  20.3888977  59.9277960  51.8729910  18.0879136
  60.4565726  51.3622365  17.4749298  60.1906179  51.5572441  18.9524669
  53.2833708  52.9245027  20.8476912  52.6144083  53.4091155  20.3640952
  53.1446577  53.1714247  21.7620290  57.4238976  54.9588771  27.4459570
  57.9757284  55.1220392  28.2108655  57.7645170  55.5493208  26.7739595
  62.2749850  49.7850028  33.3008225  62.8189754  50.3979986  32.8063179
  61.6936695  50.3429606  33.8175238  48.6521285  41.1863482  17.6272844
  48.9474726  40.2774160  17.5739898  47.7509320  41.1651221  17.3053846
  60.5607363  52.9070746  24.4323252  60.4358503  52.1060486  23.9234198
  61.2186455  53.4016939  23.9437222  52.1815532  39.2619479  23.6100392
  51.4602117  39.8755446  23.4707866  52.9708787  39.7977243  23.5317038
  62.6242272  50.7079766  26.0602802  61.6772607  50.5885117  25.9881129
  62.9725045  49.8202264  26.1429064  50.3809126  38.8677580  17.7512169
  50.0521832  37.9874959  17.5687275  50.7348497  38.8125248  18.6388558
  59.6288705  50.5032482  22.2607155  59.4813668  49.5749190  22.4414725
  60.4542199  50.5252573  21.7764230  53.4950949  39.1550549  18.1187647
  53.8347022  39.6836471  17.3966255  53.9423070  39.4930956  18.8946213
  63.2322827  51.3261041  23.3472027  64.1569374  51.1203902  23.2096478
  63.0638130  51.0777442  24.2561369  56.8410862  34.6236913  26.0218038
  57.6636931  34.1497391  25.8996928  57.0848926  35.4027396  26.5216724
  55.4819097  37.6525171  16.3180939  56.2027459  38.0306424  15.8144656
  54.8584401  38.3714048  16.4215917  59.6250219  38.3570320  17.2539272
  59.8413834  39.2394958  16.9528100  59.1444287  37.9656533  16.5244914
  54.3649441  41.3156033  23.8310016  54.2194021  41.6296336  24.7234298
  53.8874644  41.9340934  23.2780915  56.2245824  38.3058581  23.8790906
  56.2107392  37.4099675  23.5423204  56.9418252  38.3129245  24.5129192
  58.0771954  38.7395921  25.9244033  57.8189732  39.6612992  25.9228364
  57.5456995  38.3426356  26.6144498  63.0218143  51.8446709  18.7034119
  63.1955021  51.2793131  17.9507971  63.5147034  52.6447603  18.5213609
  55.6282720  37.1872961  19.1478476  55.7498631  36.2589608  19.3469364
  55.3384762  37.2011647  18.2356792  58.4973910  34.8727872  22.2845196
  58.5195607  34.9367205  21.3297175  58.9141969  34.0332381  22.4785702
  68.8757534  44.6083131  20.3224419  69.3188680  43.8590457  19.9243542
  67.9984045  44.5993268  19.9398151  64.0093316  51.1613473  15.8031017
  64.7044220  51.7820166  16.0218332  64.3516466  50.3108824  16.0783395
  65.9084739  48.6113178  17.3318348  66.4336063  48.9500451  16.6067668
  65.8207091  47.6760194  17.1481482  57.5704787  52.5247252  29.4608224
  57.8791914  52.2796399  30.3330924  58.3680269  52.7293891  28.9727095
  57.5925399  54.6785162  21.6913601  57.1530390  54.1861540  22.3846458
  58.3433516  54.1358129  21.4505676  50.0717738  50.8696703  21.6938229
  50.8975758  50.5700474  21.3136873  49.7211790  50.1004325  22.1428018
  55.0399272  50.2223171  23.7635903  54.4179281  49.5593876  23.4638131
  55.7104139  50.2484303  23.0809550  65.5978645  49.2446082  32.6369546
  64.8074189  49.2270221  32.0974045  65.3611999  49.7834376  33.3918582
  65.7176520  46.0938548  29.9502274  65.7674525  45.9288556  30.8917797
  65.6090443  45.2265807  29.5600155  54.6012779  48.7727094  17.2394363
  54.7500899  49.4562559  16.5861036  55.4079222  48.7532184  17.7543819
  63.0080282  42.0769476  31.2661581  63.9090145  41.9375941  30.9745579
  63.0828257  42.2423931  32.2059758  67.2194717  48.5135490  30.1944296
  66.9279525  48.8765471  31.0307757  66.6066848  47.8002498  30.0157628
  68.4190399  46.0788370  22.7146866  69.2537290  46.5178174  22.8784426
  68.5549528  45.6027023  21.8955112  65.4681905  43.6368105  28.6624354
  65.9436027  43.8295751  27.8543205  64.5447470  43.6927290  28.4167738
  52.3565412  44.7992272  18.2455432  52.1111453  43.8954602  18.4435642
  52.5261326  44.8009422  17.3034910  60.0462121  35.6715948  27.6280188
  60.5644065  36.4076975  27.3026676  59.6917254  35.9779941  28.4626947
  51.6261059  40.5320629  15.7441594  50.9330304  40.6064984  15.0881630
  51.3812811  39.7680973  16.2663111  60.2974716  32.0916231  23.1481084
  60.5776469  31.4239420  23.7741511  61.0825323  32.2845326  22.6355748
  58.1008184  51.2675225  14.7106111  57.5282151  51.8865412  14.2576583
  58.6740978  51.8174586  15.2446033  64.1683574  40.5133865  26.8952659
  65.1200997  40.6131962  26.9164883  63.9987024  39.7212133  27.4050744
  62.1897953  37.5989448  27.0812060  61.5947886  37.8794461  26.3858549
  61.9047650  38.0883349  27.8528801  61.3205444  51.5512375  15.8414693
  62.2536117  51.4857936  16.0447568  61.2328657  52.3868642  15.3829226
  63.9493461  50.8678245  12.8018640  63.8707092  50.5338109  13.6954398
  64.7703127  51.3600013  12.8010113  66.6471652  43.7339984  26.0094959
  66.6147972  42.7955985  26.1954643  67.2572275  43.8124021  25.2760784
  58.4854983  42.6036037  12.0522163  59.4314087  42.4742245  12.1210581
  58.1069228  41.8650699  12.5291591  66.7966140  40.5251028  26.0553242
  66.2805189  39.7409484  25.8683171  67.6806089  40.1969744  26.2199762
  64.4576867  34.2692043  22.0149055  64.2601688  33.9607132  22.8992387
  65.0676573  34.9953682  22.1446985  70.5463499  42.9363854  25.7475447
  69.8196662  42.8019819  25.1391939  70.1310786  43.2440682  26.5532165
  56.6697900  40.5286014  11.9877048  55.7629355  40.2319126  12.0639762
  56.9473881  40.2315832  11.1211335  58.2859965  35.0722903  18.1421290
  57.4760694  34.7269988  18.5176536  58.9744382  34.7630447  18.7308901
  60.2150514  34.1500950  19.7645586  60.7681552  34.5696404  20.4235609
  60.4520600  33.2236698  19.8068542  55.4396684  37.3872949  12.1289028
  56.3015848  37.7127847  12.3884845  55.6247029  36.6004445  11.6162093
  63.5929321  36.2601475  19.2724251  63.0127990  36.9186279  18.8902303
  63.3265254  35.4378820  18.8611668  62.0432887  35.6606533  21.4745571
  62.5432666  35.7723068  20.6659890  62.6868495  35.3567586  22.1146379
  62.3754199  38.4201566  18.3280599  61.4880054  38.7051216  18.1100794
  62.7908188  38.2595329  17.4807876  65.7268735  38.4448087  22.0434938
  66.5029125  38.9344539  22.3159555  65.0016869  38.8706141  22.5006808
  68.1641294  39.1575706  23.1008879  68.7585784  38.9171442  22.3902187
  68.2367877  38.4382837  23.7282415  50.3838449  53.0009317  23.4152044
  50.2492917  52.2409718  22.8490042  49.9670512  53.7250217  22.9480832
  61.5197412  48.1846240  12.4228619  62.2233262  48.3896243  13.0386274
  60.7960061  48.7523002  12.6877702  62.3495223  43.9356102  18.5430889
  62.2930424  44.3924653  17.7038521  62.9023565  43.1746786  18.3653732
  66.1600029  39.7245834  19.3681008  65.9036963  39.3242469  20.1989216
  65.5352897  40.4389628  19.2431148  70.4712366  42.4641907  21.8752300
  69.9111924  42.5335096  22.6483862  69.8655870  42.2882891  21.1551796
  53.5407575  53.8978634  23.6270486  53.4239959  54.8424066  23.5249176
  52.7200021  53.5952196  24.0156285  63.4284110  48.6228770  14.4727079
  64.2629714  48.1909968  14.2904554  63.2668453  48.4510783  15.4003973
  63.0830002  45.1260883  15.8383418  63.0278806  44.9605154  14.8971862
  62.4576057  45.8336916  15.9945608  60.3975909  47.4309795  35.1636981
  61.2667069  47.6050447  34.8023616  59.9182661  48.2504212  35.0412710
  56.3926127  34.6268992  15.4168737  56.3804797  35.5710832  15.5737007
  57.2849549  34.4439137  15.1228198  54.5662089  54.5506896  26.8426415
  55.4689336  54.5830506  27.1592910  54.3399459  53.6207347  26.8572750
  56.3215691  53.3037882  23.5036493  55.3711322  53.3039744  23.3900866
  56.6248177  52.5570617  22.9872528  60.2078247  31.2211769  19.6714673
  59.4410643  30.6670255  19.8171356  60.6188952  31.2933637  20.5328825
  68.8658091  59.0925849  24.5043780  68.5276603  58.9766914  23.6164315
  69.7347859  58.6917014  24.4844786  64.7244907  60.9461325  20.4940671
  64.1609772  60.8551262  19.7256959  64.6097302  60.1261230  20.9743164
  69.3477874  60.2460701  30.4629986  69.3366515  59.8513499  29.5910489
  69.5098514  59.5126773  31.0563757  62.2709339  62.4412517  23.3324892
  63.0630631  62.1003342  22.9171191  62.5105989  62.5507492  24.2527045
  66.0685135  63.0297812  29.4109170  65.7775001  63.9343443  29.2955836
  66.7042120  63.0714340  30.1253239  66.9941342  60.4074661  26.0010529
  67.5904914  60.1830683  25.2867492  67.0516314  59.6659406  26.6035977
  71.6109653  56.8649875  21.6435464  72.3972743  56.4469298  21.2925881
  71.8748358  57.7695967  21.8117112  68.6294200  59.2252349  19.7431785
  68.2652407  58.6982970  20.4544706  69.4861316  58.8350818  19.5698270
  64.4787502  59.1673025  22.4395668  63.5537998  59.0349239  22.6473360
  64.7271915  59.9467244  22.9365610  61.8396313  58.8106298  23.2739457
  61.9688694  59.0640777  24.1878869  61.1593764  59.4034006  22.9544112
  68.5013030  56.6531414  32.0291298  67.7246364  57.2125334  32.0194163
  69.1403593  57.1388197  32.5506168  66.7559402  59.4616867  31.5909265
  67.4974087  60.0001911  31.3144089  66.0496388  60.0883156  31.7480817
  68.5845812  56.5418614  27.5614984  69.4307007  56.9658028  27.7049633
  68.5244450  55.8852239  28.2553547  71.7345257  54.2022983  29.2196157
  71.4906189  54.9565043  28.6830433  72.0105188  54.5808330  30.0543404
  71.2909949  53.3579416  24.8009995  70.4294428  53.6560669  25.0926732
  71.3172384  53.5749815  23.8691028  64.9995599  61.4493088  24.1463564
  65.5696956  61.8780356  23.5081048  65.5903711  61.1675673  24.8447749
  67.0440404  58.0244759  18.0173366  67.7464448  58.4765802  18.4847292
  66.7121033  57.3828577  18.6453259  65.4920766  56.6156515  32.3924575
  64.8619427  57.2972796  32.6259972  65.3856854  56.5039597  31.4477713
  60.7865738  56.2828311  23.3190499  59.9964792  56.5385840  22.8430610
  61.2776986  57.0976649  23.4242540  62.7380484  56.6472891  20.2773976
  61.9411647  56.7591585  20.7957472  62.5106076  56.9859543  19.4114866
  68.5686151  63.1717594  28.2256491  68.6330584  63.6338001  29.0614662
  67.8597075  62.5414959  28.3538800  59.0703441  56.5358802  25.7505490
  59.3211480  57.4205812  26.0163066  59.6062990  56.3563403  24.9780582
  64.7701509  50.9177281  34.7549826  64.3768454  50.3643480  35.4297470
  65.5867649  51.2287860  35.1456344  61.7363566  62.3561139  18.6663396
  62.2488087  63.1504390  18.8168961  62.3886279  61.6587430  18.5996997
  67.6869470  52.3335160  32.3470083  68.4279183  52.9342313  32.2674545
  67.9187392  51.5912798  31.7888125  62.8310808  57.5191527  30.6248312
  62.7164323  56.6176785  30.9255411  61.9755325  57.7655224  30.2733129
  68.4656938  63.2556197  31.0940723  68.9985274  62.4944485  30.8640031
  67.9371019  62.9629849  31.8364877  71.6326633  48.3616263  26.6234364
  71.2890902  49.2517905  26.5473475  72.0005595  48.1717921  25.7603949
  59.7012483  60.6849794  19.4422967  60.5387705  61.0946802  19.2256674
  59.8790751  59.7449236  19.4123160  69.1824026  53.1974575  20.1892038
  68.3265623  52.8081425  20.0097677  69.5950978  53.2766536  19.3291823
  70.7123173  50.7320918  24.5883598  70.2087969  50.6951053  23.7751403
  71.0053780  51.6413661  24.6480254  66.9566059  50.8159648  23.5949779
  67.8219056  50.6202457  23.2355669  67.0243568  50.5870000  24.5219136
  64.5628378  53.0461856  20.9666146  65.1372130  52.8237037  20.2339339
  65.1499360  53.1150550  21.7194747  66.8651046  49.9203105  19.6941216
  66.2115458  49.6052122  19.0697830  66.8231520  49.2978845  20.4201039
  70.0988786  56.4085038  24.0188863  69.1811347  56.6299985  23.8610551
  70.5148930  56.4831349  23.1600571  59.7238654  58.0240509  20.1133700
  59.5263054  57.4309870  19.3884767  59.1685318  57.7192719  20.8309639
  67.7035378  57.9163615  22.2328293  67.7583988  56.9637452  22.1570770
  66.8926580  58.0723054  22.7169592  65.6427738  56.5340675  19.9918672
  64.8295603  56.8334846  20.3983864  66.1386732  56.1396364  20.7093154
  71.2401950  56.9982500  28.8233566  71.5951337  57.2253973  29.6828032
  71.8874081  57.3300876  28.2010821  65.1341813  54.1059031  25.6079907
  65.7741192  53.9647790  24.9102870  64.3019343  53.8193544  25.2318509
  65.9102117  63.4061461  21.7214899  66.7042715  62.9111781  21.5197474
  65.1993809  62.8779324  21.3582605  62.2184880  57.5504543  17.7974652
  61.2882468  57.4888998  18.0144614  62.3142352  57.0280496  17.0011293
  62.1370429  54.0759356  20.3852894  62.3977246  54.9904689  20.2762054
  62.9587601  53.6083798  20.5349507  63.6095354  55.4897113  27.5551718
  64.2818408  55.2814475  26.9064367  62.7825141  55.2919199  27.1156951
  69.5120926  52.1159054  29.5717379  68.8648841  52.8149003  29.4781856
  70.2821942  52.5495198  29.9393627  69.6885061  59.9539819  27.6314199
  70.6177121  60.1050978  27.4583166  69.2676091  60.0423839  26.7762845
  68.4873393  63.9790483  25.4012737  68.3484478  63.6109267  26.2738675
  67.6987989  64.4938122  25.2296694  70.0378608  63.3572086  22.7901574
  69.7028440  63.3172856  23.6859224  69.5382553  62.6916802  22.3171985
  64.0122852  58.7639716  28.3154155  63.8742650  58.0319955  28.9165694
  64.9227775  58.6748616  28.0338343  66.6405152  58.4759675  27.8037835
  67.3504771  57.8352867  27.7624454  66.5974460  58.7272570  28.7264016
  65.3534086  55.4624893  29.6233475  64.8171443  55.0115631  30.2755071
  64.7650795  55.5970802  28.8803939  56.2838485  59.7090704  22.2801445
  56.9709525  59.3952434  21.6922461  56.1286614  60.6132069  22.0068697
  61.0873208  54.5980901  26.7086469  61.0031396  53.9906570  25.9736879
  60.2655914  55.0889919  26.7095965  71.2596921  53.0834464  22.0756664
  71.7565621  52.3304427  21.7557734  70.4883903  53.1198781  21.5099873
  67.8431890  55.2251847  21.8028349  67.4729678  54.6722888  22.4909254
  68.3390983  54.6209981  21.2503349  69.5209948  58.9813761  33.2101954
  68.8450585  58.8807890  33.8804329  70.3437582  58.8252974  33.6737951
  61.2688807  65.2185697  25.8314469  61.8542244  64.4729385  25.9642374
  61.0713645  65.5289654  26.7151133  55.8606462  57.7891297  24.5518913
  55.8990561  57.2554888  25.3456031  55.3546754  57.2626503  23.9329890
  63.2397224  52.6355838  28.0481455  63.3038550  53.4970669  27.6358852
  63.1764344  52.0229840  27.3153813  62.7149496  54.7078971  31.6954489
  63.3421535  54.3256048  32.3092013  61.8577415  54.4893172  32.0610182
  59.4915039  56.5155400  17.6272844  59.7868480  55.6066078  17.5739898
  58.5903075  56.4943139  17.3053846  63.0209286  54.5911396  23.6100392
  62.2995872  55.2047364  23.4707866  63.8102542  55.1269161  23.5317038
  65.8235600  51.9265823  29.8841044  66.3470001  52.1728119  30.6467354
  65.6047933  52.7585858  29.4644182  61.2202881  54.1969497  17.7512169
  60.8915587  53.3166876  17.5687275  61.5742251  54.1417166  18.6388558
  64.3344704  54.4842467  18.1187647  64.6740776  55.0128388  17.3966255
  64.7816824  54.8222873  18.8946213  67.0288145  52.8679518  27.5690715
  66.6884965  52.0687331  27.9711395  66.3227151  53.1681229  26.9967548
  67.6804616  49.9528830  26.0218038  68.5030686  49.4789308  25.8996928
  67.9242680  50.7319314  26.5216724  66.3212851  52.9817089  16.3180939
  67.0421213  53.3598341  15.8144656  65.6978155  53.7005966  16.4215917
  70.4643974  53.6862238  17.2539272  70.6807588  54.5686876  16.9528100
  69.9838041  53.2948451  16.5244914  65.2043195  56.6447951  23.8310016
  65.0587776  56.9588254  24.7234298  64.7268399  57.2632851  23.2780915
  67.0639578  53.6350499  23.8790906  67.0501147  52.7391592  23.5423204
  67.7812006  53.6421163  24.5129192  68.9165709  54.0687839  25.9244033
  68.6583487  54.9904910  25.9228364  68.3850749  53.6718274  26.6144498
  59.6788857  59.1853295  26.7697678  59.1342325  59.9613103  26.9017952
  60.5568207  59.5324100  26.6116799  66.4676474  52.5164879  19.1478476
  66.5892385  51.5881525  19.3469364  66.1778516  52.5303565  18.2356792
  69.3367664  50.2019790  22.2845196  69.3589361  50.2659123  21.3297175
  69.7535723  49.3624298  22.4785702  60.4654879  58.3123192  29.6627834
  59.7236615  58.4605827  30.2492465  60.1447624  58.5731457  28.7994584
  60.9111493  66.1988620  21.6938229  61.7369513  65.8992392  21.3136873
  60.5605545  65.4296243  22.1428018  65.8793026  65.5515089  23.7635903
  65.2573035  64.8885794  23.4638131  66.5497893  65.5776220  23.0809550
  59.1120098  64.1174947  22.6527163  58.2752006  63.6897121  22.4711164
  59.0843743  64.3107390  23.5897954  65.9517554  54.0296877  33.3568409
  66.0005709  54.9058999  32.9746178  66.4940068  53.4874270  32.7840052
  68.1816842  54.7828249  30.1114767  67.3120151  55.0761815  29.8397356
  68.4176322  55.3668694  30.8322031  63.1959166  60.1284189  18.2455432
  62.9505208  59.2246519  18.4435642  63.3655081  60.1301340  17.3034910
  70.8855876  51.0007866  27.6280188  71.4037820  51.7368893  27.3026676
  70.5311009  51.3071859  28.4626947  62.4654814  55.8612547  15.7441594
  61.7724058  55.9356902  15.0881630  62.2206565  55.0972891  16.2663111
  71.1368470  47.4208148  23.1481084  71.4170224  46.7531337  23.7741511
  71.9219077  47.6137244  22.6355748  69.2087430  61.9845701  33.5122820
  70.1290439  62.1624300  33.7062867  69.1737013  61.0401747  33.3602519
  58.4269595  57.1784295  22.4376095  58.1072379  56.3249603  22.1450469
  57.8803023  57.3932873  23.1934062  62.2049502  59.8946736  26.1545601
  62.4235512  60.8263844  26.1733635  62.6175276  59.5354710  26.9400405
  69.1253720  50.4014821  18.1421290  68.3154448  50.0561906  18.5176536
  69.8138137  50.0922365  18.7308901  71.0544268  49.4792868  19.7645586
  71.6075307  49.8988321  20.4235609  71.2914355  48.5528616  19.8068542
  67.0777367  55.4679942  35.5448350  66.9774094  56.4174299  35.4760441
  66.8598910  55.1398180  34.6724420  58.2957855  60.7987206  24.4069216
  57.6021326  60.3841159  23.8939171  59.0430846  60.8407743  23.8102635
  66.9408638  58.8977080  34.3613412  66.4575719  59.6977441  34.5677301
  67.0269577  58.9085025  33.4080856  60.2094597  60.7305460  22.2835231
  60.1865285  60.8293147  21.3317114  60.5195234  61.5770611  22.6052397
  62.8681975  62.7881615  26.3981846  63.8225229  62.7565557  26.3311777
  62.6694499  62.3272239  27.2132072  63.4581357  61.3582731  28.9652643
  64.2774246  61.8526810  28.9887481  63.7318165  60.4414699  28.9370211
  61.2232204  68.3301235  23.4152044  61.0886672  67.5701636  22.8490042
  60.8064266  69.0542134  22.9480832  58.7116271  55.6920865  29.6644840
  59.3575135  55.1819819  30.1532066  58.5033422  56.4289547  30.2388266
  67.2319882  49.9560910  15.4168737  67.2198552  50.9002750  15.5737007
  68.1243304  49.7731055  15.1228198  71.0472001  46.5503686  19.6714673
  70.2804397  45.9962173  19.8171356  71.4582706  46.6225555  20.5328825
  63.0513762  52.8388482  33.7619855  63.9145224  52.4825287  33.9723179
  62.4779173  52.5002377  34.4495259  38.1027913  -1.0458732  14.8023102
  38.8155885  -0.4111267  14.7299004  37.6117942  -0.9494866  13.9863104
  35.7451468   1.3067058  14.1704877  36.2969776   1.4698679  14.9353962
  36.0857662   1.8971496  13.4984902  35.8917280  -1.1274461  16.1853531
  36.2004406  -1.3725314  17.0576231  36.6892762  -0.9227822  15.6972401
  50.3780877   5.4876708  11.2927562  51.0159287   5.3683455  10.5890902
  50.2601720   6.4357552  11.3515514  47.1870583   5.4404136  11.2289087
  46.8489095   5.3245201  10.3409622  48.0560352   5.0395301  11.2090093
  47.6690366   6.5938988  17.1875292  47.6579007   6.1991786  16.3155796
  47.8311006   5.8605060  17.7809064  40.5921831   8.7890804  10.0570198
  41.3843123   8.4481629   9.6416498  40.8318481   8.8985779  10.9772352
  48.6256958  10.9610580   2.5300443  47.9744938  11.5464661   2.1434457
  49.4201321  11.4916775   2.5895480  44.3897627   9.3776100  16.1354476
  44.0987493  10.2821731  16.0201143  45.0254612   9.4192627  16.8498546
  45.3153834   6.7552948  12.7255836  45.9117407   6.5308971  12.0112799
  45.3728806   6.0137694  13.3281284  46.9506692   5.5730637   6.4677091
  46.5864900   5.0461258   7.1790013  47.8073808   5.1829106   6.2943577
  49.3487513   9.0637515  13.1304270  49.0488236   9.9662554  13.0220077
  49.0038572   8.7969698  13.9825423  42.7999994   5.5151312   9.1640975
  41.8750491   5.3827526   9.3718666  43.0484407   6.2945531   9.6610917
  40.1608805   5.1584586   9.9984764  40.2901186   5.4119065  10.9124175
  39.4806256   5.7512294   9.6789419  44.3308292  15.8281836   6.0975238
  44.2532322  16.7789661   6.1763718  43.7269936  15.4827708   6.7550164
  46.8225522   3.0009701  18.7536605  46.0458856   3.5603621  18.7439469
  47.4616085   3.4866484  19.2751475  45.0771894   5.8095154  18.3154572
  45.8186579   6.3480198  18.0389395  44.3708880   6.4361443  18.4726124
  50.5527234   7.9524295  16.9126733  50.9610590   7.5106705  16.1681366
  49.8304496   7.3776922  17.1660926  46.9058304   2.8896902  14.2860290
  47.7519499   3.3136315  14.4294939  46.8456942   2.2330526  14.9798853
  50.8756049   8.5125485  10.6679022  50.2464911   8.6771200   9.9655090
  50.4881711   8.9267095  11.4389986  52.0096212   7.0939882  14.6218729
  52.2213107   7.7371642  13.9453110  51.9625960   6.2602199  14.1540659
  46.4284011   8.2499894   7.9329107  46.8922356   8.5287596   7.1433730
  46.1640809   7.3483338   7.7502198  43.3208092   7.7971375  10.8708870
  43.8909449   8.2258643  10.2326355  43.9116204   7.5153960  11.5693056
  43.8133258   2.9634803  19.1169882  43.1831919   3.6451083  19.3505279
  43.7069346   2.8517884  18.1723020  53.1242040   9.9711838  12.7941087
  53.9459484   9.5692025  12.5123768  53.1204443   9.8680072  13.7457203
  46.8898644   9.5195881  14.9501797  46.9543076   9.9816288  15.7859969
  46.1809568   8.8893246  15.0784107  37.3915934   2.8837089  12.4750797
  37.6423972   3.7684099  12.7408373  37.9275482   2.7041691  11.7025889
  46.6046661  11.1863988   4.8180778  46.4692336  12.0315524   5.2465625
  47.1456474  11.3883266   4.0546711  41.8670943  11.8205183   7.4731456
  42.0437572  12.7423148   7.2852440  42.6627777  11.5063602   7.9025836
  41.1523300   3.8669815  17.3493619  41.0376815   2.9655072  17.6500718
  40.2967818   4.1133511  16.9978436  48.2315138  11.8087555  18.9481120
  47.7878992  11.0223934  18.6302024  48.8932351  11.9966706  18.2825010
  42.9902259  13.3383357  13.4741798  43.5409684  13.2100420  12.7018792
  42.1513735  13.6378246  13.1236691  50.3296376  12.0890355  16.9762521
  50.3114851  12.9099236  16.4842790  51.2516296  11.9644430  17.2012662
  46.7869430   9.6034484  17.8186029  47.3197767   8.8422773  17.5885337
  46.2583511   9.3108136  18.5610184  48.1522143   8.7320477   5.3304841
  47.6243504   7.9973236   5.0178079  47.6509645   9.5095153   5.0844810
  53.1314989   6.9269497  10.4471888  52.4738663   7.6168759  10.5352016
  53.9355388   7.3165929  10.7905874  49.2042822  15.2598194   1.2536500
  48.5304520  15.5629891   1.8621458  49.5908644  16.0627275   0.9041958
  48.4201278   2.7563326  10.7434170  47.5023840   2.9778273  10.5855858
  48.8361422   2.8309636   9.8845877  52.7082244  10.2619872   6.6254972
  52.2544571   9.4210781   6.6820162  52.0776210  10.8981270   6.9629752
  51.1515183  12.0996368   7.5604790  51.4438157  12.6601425   6.8417156
  51.6613803  12.3924929   8.3157949  46.0247870   4.2641903   8.9573600
  46.0796480   3.3115739   8.8816076  45.2139072   4.4201342   9.4414898
  46.1148808  12.8776719   8.6498243  46.0724987  13.1037566   7.7206775
  47.0311507  12.6440094   8.7984044  49.5614442   3.3460787  15.5478873
  49.9163830   3.5732260  16.4073338  50.2086573   3.6779164  14.9256128
  55.3181558   8.5355750  11.2639473  55.7518065   8.4431039  12.1122527
  56.0313139   8.5113250  10.6259489  44.2314609   9.7539748   8.4460206
  45.0255207   9.2590068   8.2442781  43.5206301   9.2257611   8.0827912
  49.0509453  12.1357844  12.7972574  49.1046476  12.7048780  13.5650290
  48.1824235  12.3059729  12.4326611  41.9307847   1.8375400  14.2797025
  42.6030900   1.6292762  13.6309674  41.1037633   1.6397486  13.8402257
  56.1797108   8.5779450  13.7972358  56.3732998   9.4825261  14.0431633
  56.0797726   8.1186869  14.6310943  51.2412217   8.7286193  19.3713239
  51.0897723   8.4996745  18.4543323  51.2316896   9.6856795  19.3844584
  48.0097553   6.3018106  14.3559506  48.9389613   6.4529265  14.1828473
  47.5888583   6.3902127  13.5008152  46.8085885  10.3268770  12.1258043
  46.6696971   9.9587555  12.9983981  46.0200481  10.8416410  11.9542001
  47.4034037  15.4277867   3.4683580  47.5785793  14.9565910   4.2829202
  46.7166825  16.0543633   3.6964840  48.3591100   9.7050373   9.5146881
  48.0240933   9.6651143  10.4104531  47.8595046   9.0395089   9.0417291
  42.3335344   5.1118003  15.0399462  42.1955142   4.3798242  15.6411001
  43.2440267   5.0226903  14.7583650  44.9617645   4.8237962  14.5283142
  45.6717263   4.1831155  14.4869760  44.9186953   5.0750857  15.4509323
  52.9504423  11.7605316  17.4489721  52.8916969  11.0764536  16.7820304
  53.3523942  12.5024306  16.9970347  43.6746579   1.8103180  16.3478781
  43.1383936   1.3593919  17.0000378  43.0863287   1.9449089  15.6049246
  41.9695122  18.5767230  10.2423440  42.2091720  19.2085754  10.9202458
  41.1264319  18.2255270  10.5288799  52.9521831   9.7244900  15.6803701
  52.0648609   9.3870821  15.8030099  53.5220382   8.9927931  15.9172466
  39.4085700   0.9459188  13.4331776  39.3243889   0.3384857  12.6982186
  38.5868406   1.4368206  13.4341272  46.4822984  14.3846352  12.6464944
  46.4093155  15.1901323  13.1584248  46.0400377  14.5838318  11.8212965
  46.2712764  13.6218122   6.1567765  45.4880285  14.1639802   6.2505990
  46.9705509  14.1392102   6.5562007  48.9421667  14.2833186  14.8023102
  49.6549640  14.9180651  14.7299004  48.4511696  14.3797052  13.9863104
  43.9933581  12.0327629  15.6228673  44.6943041  12.6664112  15.7758068
  43.5228696  12.3742361  14.8624313  51.7934867   4.5872237  13.4481224
  51.1406317   4.8348144  12.7933676  52.1715247   3.7736375  13.1143701
  48.7542041  14.6231930   7.5509394  48.9364435  13.8053586   8.0137146
  49.5775027  14.8399622   7.1134284  49.0884206  13.5500115   4.8124442
  49.6171973  13.0392570   4.1994605  49.3512426  13.2342645   5.6769975
  47.8422440   5.3292048  19.9347261  47.1663077   5.2286177  20.6049636
  48.6650074   5.1731262  20.3983258  39.5901299  11.5663985  12.5559776
  40.1754736  10.8207672  12.6887680  39.3926138  11.8767941  13.4396440
  42.4439954  14.6015232   7.5722218  41.7750330  15.0861360   7.0886258
  42.3052824  14.8484452   8.4865597  46.5845223  16.6358975  14.1704877
  47.1363531  16.7990597  14.9353962  46.9251416  17.2263413  13.4984902
  41.0361989   1.0557258  18.4199796  41.6634027   0.6734335  19.0337320
  40.1789907   0.8371460  18.7855488  51.4356097  11.4620233  20.0253531
  51.9796001  12.0750191  19.5308486  50.8542942  12.0199811  20.5420544
  49.7213610  14.5840951  11.1568559  49.5964750  13.7830691  10.6479504
  50.3792701  15.0787144  10.6682529  51.7848519  12.3849971  12.7848109
  50.8378854  12.2655322  12.7126436  52.1331292  11.4972469  12.8674370
  48.7894952  12.1802687   8.9852461  48.6419914  11.2519395   9.1660031
  49.6148445  12.2022778   8.5009536  52.3929074  13.0031246  10.0717334
  53.3175621  12.7974107   9.9341785  52.2244377  12.7547647  10.9806675
  43.5255688   2.9926238  10.5555323  43.3800268   3.3066541  11.4479605
  43.0480891   3.6111138  10.0026222  52.1824390  13.5216913   5.4279425
  52.3561267  12.9563336   4.6753278  52.6753281  14.3217808   5.2458915
  38.0001350   5.5331583  13.4942984  37.4554818   6.3091390  13.6263259
  38.8780700   5.8802387  13.3362106  38.7867372   4.6601479  16.3873141
  38.0449108   4.8084114  16.9737772  38.4660116   4.9209744  15.5239890
  46.7311034  14.2017457  16.1853531  47.0398161  13.9566604  17.0576231
  47.5286516  14.4064095  15.6972401  46.7531646  16.3555367   8.4158908
  46.3136637  15.8631745   9.1091764  47.5039763  15.8128334   8.1750983
  39.2323985  12.5466908   8.4183536  40.0582005  12.2470679   8.0382179
  38.8818037  11.7774530   8.8673324  44.2005518  11.8993376  10.4881209
  43.5785528  11.2364081  10.1883437  44.8710385  11.9254508   9.8054857
  37.4332590  10.4653234   9.3772469  36.5964499  10.0375408   9.1956471
  37.4056236  10.6585677  10.3143261  54.7584892  10.9216287  19.3614852
  53.9680435  10.9040426  18.8219352  54.5218246  11.4604581  20.1163889
  54.8782767   7.7708753  16.6747581  54.9280772   7.6058761  17.6163104
  54.7696690   6.9036012  16.2845462  56.3800963  10.1905695  16.9189602
  56.0885772  10.5535675  17.7553063  55.7673095   9.4772703  16.7402935
  54.6288152   5.3138310  15.3869660  55.1042273   5.5065956  14.5788512
  53.7053717   5.3697495  15.1413044  47.5299922   8.3323988  20.2368127
  48.4502931   8.5102587  20.4308173  47.4949505   7.3880034  20.0847826
  40.5261994   6.2425023  12.8790908  40.7448004   7.1742131  12.8978942
  40.9387768   5.8832997  13.6645712  45.3989860   1.8158229  22.2693657
  45.2986587   2.7652586  22.2005748  45.1811402   1.4876468  21.3969727
  36.6170347   7.1465494  11.1314523  35.9233818   6.7319446  10.6184477
  37.3643338   7.1886030  10.5347942  45.2621130   5.2455368  21.0858718
  44.7788211   6.0455728  21.2922608  45.3482069   5.2563313  20.1326162
  41.1894467   9.1359902  13.1227152  42.1437721   9.1043845  13.0557084
  40.9906991   8.6750526  13.9377378  41.7793849   7.7061018  15.6897950
  42.5986738   8.2005097  15.7132787  42.0530657   6.7892987  15.6615517
  39.5444696  14.6779522  10.1397350  39.4099164  13.9179923   9.5735348
  39.1276758  15.4020422   9.6726139  42.7013822  15.5748839  10.3515793
  42.5846206  16.5194271  10.2494483  41.8806268  15.2722400  10.7401592
  37.0328764   2.0399152  16.3890147  37.6787627   1.5298106  16.8777372
  36.8245915   2.7767834  16.9633572  49.5582156   9.1080000  21.8882288
  50.4273315   9.2820652  21.5268922  49.0788907   9.9274417  21.7658017
  43.7268336  16.2277101  13.5671721  44.6295583  16.2600711  13.8838216
  43.5005706  15.2977552  13.5818057  45.4821938  14.9808087  10.2281800
  44.5317569  14.9809949  10.1146172  45.7854424  14.2340822   9.7117834
  61.2174632  20.8168626  11.2927562  61.8553042  20.6975373  10.5890902
  61.0995474  21.7649470  11.3515514  58.0264338  20.7696054  11.2289087
  57.6882849  20.6537119  10.3409622  58.8954106  20.3687219  11.2090093
  53.8851154  22.6231530   7.2185978  53.3216019  22.5321467   6.4502266
  53.7703549  21.8031435   7.6988470  58.5084121  21.9230906  17.1875292
  58.4972762  21.5283704  16.3155796  58.6704760  21.1896978  17.7809064
  51.4315585  24.1182722  10.0570198  52.2236877  23.7773546   9.6416498
  51.6712236  24.2277697  10.9772352  59.4650712  26.2902498   2.5300443
  58.8138692  26.8756578   2.1434457  60.2595075  26.8208693   2.5895480
  53.3906339  23.3791635   2.9287577  54.1637215  22.8320622   2.7900453
  53.7431738  24.2435884   3.1402039  55.2291382  24.7068017  16.1354476
  54.9381248  25.6113648  16.0201143  55.8648366  24.7484545  16.8498546
  56.1547589  22.0844866  12.7255836  56.7511161  21.8600888  12.0112799
  56.2122560  21.3429611  13.3281284  57.7900447  20.9022554   6.4677091
  57.4258654  20.3753175   7.1790013  58.6467563  20.5121023   6.2943577
  60.1881267  24.3929433  13.1304270  59.8881990  25.2954472  13.0220077
  59.8432327  24.1261616  13.9825423  53.6393749  20.8443230   9.1640975
  52.7144245  20.7119444   9.3718666  53.8878162  21.6237449   9.6610917
  51.0002560  20.4876503   9.9984764  51.1294941  20.7410982  10.9124175
  50.3200011  21.0804211   9.6789419  55.1702047  31.1573753   6.0975238
  55.0926077  32.1081578   6.1763718  54.5663690  30.8119626   6.7550164
  57.6619277  18.3301619  18.7536605  56.8852611  18.8895539  18.7439469
  58.3009840  18.8158402  19.2751475  55.9165649  21.1387072  18.3154572
  56.6580333  21.6772116  18.0389395  55.2102634  21.7653361  18.4726124
  61.3920989  23.2816212  16.9126733  61.8004345  22.8398623  16.1681366
  60.6698250  22.7068840  17.1660926  57.7452059  18.2188819  14.2860290
  58.5913254  18.6428233  14.4294939  57.6850696  17.5622444  14.9798853
  61.7149803  23.8417403  10.6679022  61.0858666  24.0063117   9.9655090
  61.3275465  24.2559013  11.4389986  60.8951504  15.8793188  15.9441464
  60.6512436  16.6335248  15.4075739  61.1711434  16.2578535  16.7788711
  62.8489967  22.4231800  14.6218729  63.0606862  23.0663560  13.9453110
  62.8019715  21.5894117  14.1540659  60.4516196  15.0349621  11.5255302
  59.5900675  15.3330874  11.8172039  60.4778630  15.2520020  10.5936334
  57.2677765  23.5791811   7.9329107  57.7316111  23.8579514   7.1433730
  57.0034563  22.6775256   7.7502198  54.1601846  23.1263293  10.8708870
  54.7303203  23.5550561  10.2326355  54.7509958  22.8445877  11.5693056
  56.2046651  19.7014964   4.7418672  56.9070695  20.1536007   5.2092599
  55.8727280  19.0598782   5.3698565  54.6527013  18.2926720  19.1169882
  54.0225673  18.9743001  19.3505279  54.5463101  18.1809802  18.1723020
  49.9471985  17.9598516  10.0435806  49.1571039  18.2156045   9.5675917
  50.4383232  18.7746854  10.1487846  63.9635795  25.3003755  12.7941087
  64.7853238  24.8983943  12.5123768  63.9598198  25.1971990  13.7457203
  51.8986731  18.3243095   7.0019283  51.1017894  18.4361790   7.5202778
  51.6712323  18.6629748   6.1360173  57.7292398  24.8487799  14.9501797
  57.7936831  25.3108206  15.7859969  57.0203322  24.2185164  15.0784107
  48.2309688  18.2129007  12.4750797  48.4817727  19.0976017  12.7408373
  48.7669237  18.0333608  11.7025889  57.4440416  26.5155906   4.8180778
  57.3086091  27.3607442   5.2465625  57.9850228  26.7175184   4.0546711
  53.9307755  12.5947486  21.4795133  53.5374701  12.0413685  22.1542777
  54.7473896  12.9058064  21.8701650  50.8969813  24.0331344   5.3908703
  51.4094334  24.8274594   5.5414267  51.5492526  23.3357635   5.3242304
  52.7064698  27.1497100   7.4731456  52.8831326  28.0715065   7.2852440
  53.5021531  26.8355520   7.9025836  56.8475716  14.0105365  19.0715389
  57.5885430  14.6112518  18.9919852  57.0793639  13.2683003  18.5133432
  51.9917054  19.1961732  17.3493619  51.8770570  18.2946990  17.6500718
  51.1361572  19.4425429  16.9978436  59.0708892  27.1379473  18.9481120
  58.6272746  26.3515851  18.6302024  59.7326106  27.3258623  18.2825010
  53.8296013  28.6675274  13.4741798  54.3803438  28.5392338  12.7018792
  52.9907489  28.9670163  13.1236691  61.1690130  27.4182273  16.9762521
  61.1508606  28.2391154  16.4842790  62.0910050  27.2936348  17.2012662
  57.6263184  24.9326402  17.8186029  58.1591521  24.1714690  17.5885337
  57.0977265  24.6400054  18.5610184  48.8618730  22.3619999   6.1668273
  49.6993952  22.7717007   5.9501981  49.0396998  21.4219441   6.1368467
  59.8729420  12.4091123  11.3128904  59.3694215  12.3721258  10.4996710
  60.1660027  13.3183866  11.3725561  56.1172306  12.4929853  10.3195086
  56.9825302  12.2972662   9.9600975  56.1849815  12.2640205  11.2464443
  58.9915897  24.0612395   5.3304841  58.4637259  23.3265154   5.0178079
  58.4903400  24.8387071   5.0844810  63.9708743  22.2561415  10.4471888
  63.3132418  22.9460676  10.5352016  64.7749142  22.6457847  10.7905874
  53.7234625  14.7232061   7.6911453  54.2978377  14.5007242   6.9584646
  54.3105607  14.7920755   8.4440054  60.0436576  30.5890112   1.2536500
  59.3698275  30.8921809   1.8621458  60.4302398  31.3919192   0.9041958
  59.2595033  18.0855243  10.7434170  58.3417594  18.3070190  10.5855858
  59.6755176  18.1601554   9.8845877  63.5475998  25.5911789   6.6254972
  63.0938325  24.7502699   6.6820162  62.9169965  26.2273188   6.9629752
  61.9908937  27.4288286   7.5604790  62.2831912  27.9893343   6.8417156
  62.5007558  27.7216847   8.3157949  48.8844901  19.7010714   6.8379007
  48.6869301  19.1080075   6.1130073  48.3291565  19.3962924   7.5554945
  56.8641625  19.5933820   8.9573600  56.9190235  18.6407657   8.8816076
  56.0532827  19.7493259   9.4414898  54.8033985  18.2110880   6.7163979
  53.9901850  18.5105051   7.1229171  55.2992979  17.8166569   7.4338461
  56.9542563  28.2068637   8.6498243  56.9118741  28.4329483   7.7206775
  57.8705261  27.9732012   8.7984044  60.4008196  18.6752705  15.5478873
  60.7557584  18.9024178  16.4073338  61.0480328  19.0071081  14.9256128
  54.2948059  15.7829236  12.3325214  54.9347439  15.6417995  11.6348177
  53.4625590  15.4963749  11.9563816  66.1575313  23.8647667  11.2639473
  66.5911820  23.7722957  12.1122527  66.8706894  23.8405168  10.6259489
  55.0708363  25.0831666   8.4460206  55.8648962  24.5881986   8.2442781
  54.3600056  24.5549529   8.0827912  59.8903208  27.4649762  12.7972574
  59.9440230  28.0340698  13.5650290  59.0217989  27.6351647  12.4326611
  51.3791127  19.2274748   4.5219959  50.4488715  19.1659203   4.7389921
  51.4748599  18.7050700   3.7256600  51.2976676  15.7529561   7.1098200
  51.5583493  16.6674894   7.0007361  52.1193848  15.2854003   7.2594813
  52.7701601  17.1667318  14.2797025  53.4424655  16.9584680  13.6309674
  51.9431388  16.9689404  13.8402257  67.0190862  23.9071368  13.7972358
  67.2126753  24.8117179  14.0431633  66.9191481  23.4478787  14.6310943
  58.6727173  13.7929259  16.2962686  58.0255088  14.4919208  16.2027162
  59.4428189  14.2265403  16.6638934  62.0805971  24.0578111  19.3713239
  61.9291478  23.8288663  18.4543323  62.0710651  25.0148712  19.3844584
  58.8491308  21.6310024  14.3559506  59.7783368  21.7821183  14.1828473
  58.4282338  21.7194044  13.5008152  57.6479639  25.6560688  12.1258043
  57.5090725  25.2879472  12.9983981  56.8594236  26.1708327  11.9542001
  58.2427791  30.7569784   3.4683580  58.4179547  30.2857828   4.2829202
  57.5560579  31.3835551   3.6964840  59.1984854  25.0342291   9.5146881
  58.8634687  24.9943061  10.4104531  58.6988800  24.3687007   9.0417291
  53.1729098  20.4409921  15.0399462  53.0348896  19.7090160  15.6411001
  54.0834022  20.3518821  14.7583650  55.8011399  20.1529880  14.5283142
  56.5111018  19.5123072  14.4869760  55.7580707  20.4042775  15.4509323
  63.7898178  27.0897233  17.4489721  63.7310724  26.4056454  16.7820304
  64.1917696  27.8316223  16.9970347  54.5140333  17.1395098  16.3478781
  53.9777690  16.6885836  17.0000378  53.9257042  17.2741007  15.6049246
  52.8088877  33.9059147  10.2423440  53.0485475  34.5377671  10.9202458
  51.9658073  33.5547187  10.5288799  63.7915585  25.0536817  15.6803701
  62.9042364  24.7162739  15.8030099  64.3614136  24.3219849  15.9172466
  45.4444732  21.3860909   9.0046752  46.1315772  21.0722639   8.4167767
  45.2892861  22.2902274   8.7314003  50.2479454  16.2751106  13.4331776
  50.1637643  15.6676775  12.6982186  49.4262161  16.7660124  13.4341272
  57.3216738  29.7138270  12.6464944  57.2486910  30.5193241  13.1584248
  56.8794132  29.9130235  11.8212965  57.1106518  28.9510040   6.1567765
  56.3274040  29.4931720   6.2505990  57.8099263  29.4684019   6.5562007
  59.7815422  29.6125104  14.8023102  60.4943394  30.2472569  14.7299004
  59.2905451  29.7088970  13.9863104  57.0038137  16.9022052   8.5273655
  56.6335924  16.3493093   9.2154561  57.4997229  16.2980186   7.9748655
  54.8327336  27.3619547  15.6228673  55.5336795  27.9956030  15.7758068
  54.3622450  27.7034279  14.8624313  62.6328621  19.9164155  13.4481224
  61.9800072  20.1640062  12.7933676  63.0109001  19.1028293  13.1143701
  59.5935795  29.9523848   7.5509394  59.7758190  29.1345504   8.0137146
  60.4168781  30.1691540   7.1134284  59.9277961  28.8792033   4.8124442
  60.4565727  28.3684487   4.1994605  60.1906180  28.5634563   5.6769975
  58.6816194  20.6583966  19.9347261  58.0056832  20.5578095  20.6049636
  59.5043828  20.5023179  20.3983258  50.4295054  26.8955902  12.5559776
  51.0148490  26.1499590  12.6887680  50.2319892  27.2059859  13.4396440
  53.2833709  29.9307150   7.5722218  52.6144084  30.4153277   7.0886258
  53.1446578  30.1776370   8.4865597  45.0212708  19.4661502  11.2764219
  45.0596808  18.9325093  12.0701337  44.5153001  18.9396708  10.6575196
  57.4238977  31.9650893  14.1704877  57.9757285  32.1282515  14.9353962
  57.7645171  32.5555331  13.4984902  52.4003471  14.3126043  14.7726761
  52.4644797  15.1740874  14.3604159  52.3370591  13.7000045  14.0399120
  51.8755743  16.3849175  18.4199796  52.5027782  16.0026253  19.0337320
  51.0183662  16.1663377  18.7855488  62.2749852  26.7912151  20.0253531
  62.8189756  27.4042109  19.5308486  61.6936697  27.3491729  20.5420544
  48.6521286  18.1925605   4.3518151  48.9474727  17.2836283   4.2985204
  47.7509322  18.1713344   4.0299153  60.5607365  29.9132869  11.1568559
  60.4358504  29.1122608  10.6479504  61.2186456  30.4079062  10.6682529
  52.1815533  16.2681601  10.3345699  51.4602119  16.8817569  10.1953172
  52.9708789  16.8039366  10.2562345  62.6242273  27.7141889  12.7848109
  61.6772609  27.5947240  12.7126436  62.9725046  26.8264387  12.8674370
  54.9841846  13.6036028  16.6086351  55.5076248  13.8498324  17.3712660
  54.7654180  14.4356062  16.1889488  50.3809127  15.8739702   4.4757476
  50.0521834  14.9937081   4.2932582  50.7348498  15.8187371   5.3633865
  59.6288706  27.5094605   8.9852461  59.4813669  26.5811312   9.1660031
  60.4542200  27.5314696   8.5009536  53.4950951  16.1612672   4.8432953
  53.8347023  16.6898593   4.1211562  53.9423071  16.4993078   5.6191520
  63.2322828  28.3323164  10.0717334  64.1569376  28.1266025   9.9341785
  63.0638132  28.0839565  10.9806675  56.1894391  14.5449723  14.2936021
  55.8491212  13.7457536  14.6956701  55.4833398  14.8451434  13.7212855
  56.8410863  11.6299035  12.7463344  57.6636933  11.1559513  12.6242235
  57.0848927  12.4089519  13.2462031  54.3649442  18.3218156  10.5555323
  54.2194023  18.6358459  11.4479605  53.8874646  18.9403056  10.0026222
  56.2245825  15.3120704  10.6036213  56.2107394  14.4161797  10.2668511
  56.9418253  15.3191368  11.2374499  58.0771956  15.7458044  12.6489340
  57.8189733  16.6675115  12.6473670  57.5456996  15.3488479  13.3389804
  63.0218144  28.8508831   5.4279425  63.1955022  28.2855254   4.6753278
  63.5147036  29.6509726   5.2458915  48.8395104  20.8623500  13.4942984
  48.2948572  21.6383308  13.6263259  49.7174454  21.2094305  13.3362106
  49.6261126  19.9893396  16.3873141  48.8842862  20.1376032  16.9737772
  49.3053870  20.2501662  15.5239890  57.5704789  29.5309375  16.1853531
  57.8791915  29.2858521  17.0576231  58.3680271  29.7356013  15.6972401
  57.5925401  31.6847284   8.4158908  57.1530391  31.1923663   9.1091764
  58.3433518  31.1420252   8.1750983  50.0717740  27.8758825   8.4183536
  50.8975760  27.5762597   8.0382179  49.7211792  27.1066448   8.8673324
  55.0399273  27.2285293  10.4881209  54.4179282  26.5655998  10.1883437
  55.7104140  27.2546425   9.8054857  48.2726345  25.7945152   9.3772469
  47.4358253  25.3667326   9.1956471  48.2449990  25.9877595  10.3143261
  55.1123800  15.7067081  20.0813715  55.1611956  16.5829204  19.6991485
  55.6546315  15.1644474  19.5085359  65.5978646  26.2508205  19.3614852
  64.8074190  26.2332344  18.8219352  65.3612001  26.7896498  20.1163889
  65.7176521  23.1000671  16.6747581  65.7674526  22.9350679  17.6163104
  65.6090444  22.2327930  16.2845462  54.6012780  25.7789217   3.9639670
  54.7500900  26.4624681   3.3106343  55.4079223  25.7594307   4.4789126
  63.0080284  19.0831599  17.9906888  63.9090146  18.9438064  17.6990885
  63.0828258  19.2486054  18.9305065  57.3423089  16.4598454  16.8360074
  56.4726398  16.7532020  16.5642663  57.5782569  17.0438899  17.5567338
  67.2194718  25.5197613  16.9189602  66.9279526  25.8827593  17.7553063
  66.6066849  24.8064621  16.7402935  65.4681906  20.6430227  15.3869660
  65.9436028  20.8357874  14.5788512  64.5447472  20.6989413  15.1413044
  52.3565413  21.8054394   4.9700739  52.1111455  20.9016724   5.1680949
  52.5261327  21.8071545   4.0280217  60.0462123  12.6778071  14.3525494
  60.5644067  13.4139098  14.0271983  59.6917255  12.9842064  15.1872253
  51.6261060  17.5382752   2.4686900  50.9330305  17.6127107   1.8126936
  51.3812812  16.7743096   2.9908417  58.1008185  28.2737347   1.4351417
  57.5282152  28.8927534   0.9821889  58.6740979  28.8236709   1.9691339
  64.1683575  17.5195987  13.6197966  65.1200998  17.6194085  13.6410190
  63.9987026  16.7274256  14.1296050  62.1897955  14.6051571  13.8057367
  61.5947887  14.8856583  13.1103856  61.9047651  15.0945471  14.5774108
  66.6471653  20.7402107  12.7340266  66.6147973  19.8018108  12.9199950
  67.2572277  20.8186144  12.0006091  58.3693676  23.6615906  20.2368127
  59.2896686  23.8394505  20.4308173  58.3343259  22.7171951  20.0847826
  47.5875841  18.8554500   9.1621401  47.2678626  18.0019808   8.8695775
  47.0409270  19.0703078   9.9179369  51.3655749  21.5716941  12.8790908
  51.5841759  22.5034049  12.8978942  51.7781523  21.2124915  13.6645712
  56.2383614  17.1450147  22.2693657  56.1380341  18.0944503  22.2005748
  56.0205156  16.8168385  21.3969727  47.4564101  22.4757411  11.1314523
  46.7627573  22.0611364  10.6184477  48.2037092  22.5177948  10.5347942
  56.1014884  20.5747285  21.0858718  55.6181966  21.3747645  21.2922608
  56.1875823  20.5855230  20.1326162  49.3700844  22.4075665   9.0080538
  49.3471532  22.5063352   8.0562421  49.6801480  23.2540816   9.3297704
  52.0288222  24.4651820  13.1227152  52.9831475  24.4335762  13.0557084
  51.8300745  24.0042444  13.9377378  52.6187604  23.0352936  15.6897950
  53.4380493  23.5297015  15.7132787  52.8924412  22.1184904  15.6615517
  50.3838451  30.0071440  10.1397350  50.2492918  29.2471840   9.5735348
  49.9670513  30.7312339   9.6726139  53.5407576  30.9040757  10.3515793
  53.4239961  31.8486189  10.2494483  52.7200023  30.6014318  10.7401592
  47.8722518  17.3691070  16.3890147  48.5181382  16.8590024  16.8777372
  47.6639669  18.1059752  16.9633572  60.3975910  24.4371917  21.8882288
  61.2667070  24.6112570  21.5268922  59.9182662  25.2566334  21.7658017
  54.5662091  31.5569018  13.5671721  55.4689337  31.5892629  13.8838216
  54.3399461  30.6269469  13.5818057  56.3215693  30.3100005  10.2281800
  55.3711324  30.3101867  10.1146172  56.6248179  29.5632740   9.7117834
  52.2120009  14.5158687  20.4865161  53.0751471  14.1595492  20.6968486
  51.6385420  14.1772582  21.1740566  68.8658092  36.0987972  11.2289087
  68.5276604  35.9829036  10.3409622  69.7347861  35.6979137  11.2090093
  64.7244908  37.9523448   7.2185978  64.1609773  37.8613385   6.4502266
  64.6097303  37.1323352   7.6988470  69.3477875  37.2522823  17.1875292
  69.3366516  36.8575621  16.3155796  69.5098515  36.5188896  17.7809064
  62.2709340  39.4474640  10.0570198  63.0630632  39.1065464   9.6416498
  62.5105990  39.5569615  10.9772352  66.0685136  40.0359935  16.1354476
  65.7775002  40.9405566  16.0201143  66.7042121  40.0776463  16.8498546
  66.9941343  37.4136784  12.7255836  67.5904916  37.1892806  12.0112799
  67.0516315  36.6721529  13.3281284  68.6294201  36.2314472   6.4677091
  68.2652409  35.7045093   7.1790013  69.4861317  35.8412941   6.2943577
  71.0275022  39.7221351  13.1304270  70.7275745  40.6246389  13.0220077
  70.6826081  39.4553534  13.9825423  64.4787503  36.1735147   9.1640975
  63.5538000  36.0411361   9.3718666  64.7271916  36.9529367   9.6610917
  61.8396314  35.8168421   9.9984764  61.9688695  36.0702900  10.9124175
  61.1593765  36.4096129   9.6789419  68.5013031  33.6593536  18.7536605
  67.7246365  34.2187456  18.7439469  69.1403594  34.1450319  19.2751475
  66.7559403  36.4678990  18.3154572  67.4974088  37.0064034  18.0389395
  66.0496389  37.0945278  18.4726124  68.5845813  33.5480737  14.2860290
  69.4307008  33.9720150  14.4294939  68.5244451  32.8914361  14.9798853
  71.7345258  31.2085105  15.9441464  71.4906190  31.9627166  15.4075739
  72.0105189  31.5870453  16.7788711  71.2909950  30.3641538  11.5255302
  70.4294429  30.6622792  11.8172039  71.3172385  30.5811937  10.5936334
  64.9995601  38.4555210  10.8708870  65.5696958  38.8842479  10.2326355
  65.5903713  38.1737795  11.5693056  67.0440406  35.0306881   4.7418672
  67.7464449  35.4827925   5.2092599  66.7121034  34.3890700   5.3698565
  65.4920767  33.6218638  19.1169882  64.8619428  34.3034919  19.3505279
  65.3856855  33.5101719  18.1723020  60.7865740  33.2890434  10.0435806
  59.9964794  33.5447962   9.5675917  61.2776987  34.1038772  10.1487846
  62.7380485  33.6535013   7.0019283  61.9411648  33.7653707   7.5202778
  62.5106077  33.9921665   6.1360173  68.5686153  40.1779716  14.9501797
  68.6330585  40.6400124  15.7859969  67.8597076  39.5477081  15.0784107
  59.0703443  33.5420924  12.4750797  59.3211481  34.4267934  12.7408373
  59.6062991  33.3625526  11.7025889  64.7701510  27.9239404  21.4795133
  64.3768455  27.3705602  22.1542777  65.5867650  28.2349982  21.8701650
  61.7363568  39.3623262   5.3908703  62.2488088  40.1566512   5.5414267
  62.3886280  38.6649552   5.3242304  67.6869471  29.3397283  19.0715389
  68.4279184  29.9404436  18.9919852  67.9187394  28.5974921  18.5133432
  62.8310809  34.5253650  17.3493619  62.7164324  33.6238907  17.6500718
  61.9755327  34.7717347  16.9978436  69.9102647  42.4671390  18.9481120
  69.4666501  41.6807769  18.6302024  70.5719860  42.6550541  18.2825010
  64.6689768  43.9967192  13.4741798  65.2197193  43.8684255  12.7018792
  63.8301244  44.2962081  13.1236691  68.4656939  40.2618320  17.8186029
  68.9985276  39.5006608  17.5885337  67.9371020  39.9691972  18.5610184
  59.7012484  37.6911916   6.1668273  60.5387706  38.1008925   5.9501981
  59.8790752  36.7511358   6.1368467  70.7123174  27.7383041  11.3128904
  70.2087970  27.7013176  10.4996710  71.0053781  28.6475784  11.3725561
  66.9566060  27.8221771  10.3195086  67.8219057  27.6264579   9.9600975
  67.0243569  27.5932122  11.2464443  64.5628379  30.0523979   7.6911453
  65.1372131  29.8299160   6.9584646  65.1499362  30.1212673   8.4440054
  70.0988787  33.4147161  10.7434170  69.1811349  33.6362108  10.5855858
  70.5148931  33.4893471   9.8845877  59.7238656  35.0302632   6.8379007
  59.5263055  34.4371992   6.1130073  59.1685320  34.7254842   7.5554945
  67.7035379  34.9225738   8.9573600  67.7583989  33.9699574   8.8816076
  66.8926581  35.0785177   9.4414898  65.6427739  33.5402798   6.7163979
  64.8295605  33.8396968   7.1229171  66.1386733  33.1458487   7.4338461
  71.2401951  34.0044622  15.5478873  71.5951339  34.2316095  16.4073338
  71.8874082  34.3362999  14.9256128  65.1341814  31.1121153  12.3325214
  65.7741193  30.9709912  11.6348177  64.3019344  30.8255667  11.9563816
  65.9102118  40.4123584   8.4460206  66.7042716  39.9173904   8.2442781
  65.1993810  39.8841447   8.0827912  70.7296962  42.7941679  12.7972574
  70.7833985  43.3632616  13.5650290  69.8611744  42.9643564  12.4326611
  62.2184881  34.5566665   4.5219959  61.2882469  34.4951121   4.7389921
  62.3142353  34.0342618   3.7256600  62.1370430  31.0821478   7.1098200
  62.3977248  31.9966811   7.0007361  62.9587603  30.6145921   7.2594813
  63.6095356  32.4959235  14.2797025  64.2818409  32.2876598  13.6309674
  62.7825142  32.2981321  13.8402257  69.5120928  29.1221176  16.2962686
  68.8648843  29.8211126  16.2027162  70.2821943  29.5557320  16.6638934
  69.6885062  36.9601941  14.3559506  70.6177122  37.1113101  14.1828473
  69.2676092  37.0485962  13.5008152  68.4873394  40.9852606  12.1258043
  68.3484480  40.6171390  12.9983981  67.6987990  41.5000245  11.9542001
  70.0378609  40.3634208   9.5146881  69.7028442  40.3234978  10.4104531
  69.5382555  39.6978924   9.0417291  64.0122853  35.7701838  15.0399462
  63.8742651  35.0382077  15.6411001  64.9227776  35.6810738  14.7583650
  66.6405154  35.4821798  14.5283142  67.3504772  34.8414990  14.4869760
  66.5974462  35.7334693  15.4509323  65.3534088  32.4687016  16.3478781
  64.8171445  32.0177754  17.0000378  64.7650796  32.6032924  15.6049246
  56.2838487  36.7152827   9.0046752  56.9709527  36.4014557   8.4167767
  56.1286615  37.6194191   8.7314003  61.0873209  31.6043023  13.4331776
  61.0031398  30.9968693  12.6982186  60.2655915  32.0952042  13.4341272
  68.1610493  45.0430187  12.6464944  68.0880664  45.8485159  13.1584248
  67.7187886  45.2422153  11.8212965  70.6209176  44.9417021  14.8023102
  71.3337149  45.5764486  14.7299004  70.1299205  45.0380887  13.9863104
  67.8431891  32.2313970   8.5273655  67.4729679  31.6785010   9.2154561
  68.3390984  31.6272103   7.9748655  65.6721090  42.6911465  15.6228673
  66.3730549  43.3247948  15.7758068  65.2016205  43.0326196  14.8624313
  69.5209949  35.9875883  19.9347261  68.8450586  35.8870013  20.6049636
  70.3437583  35.8315097  20.3983258  61.2688808  42.2247820  12.5559776
  61.8542245  41.4791508  12.6887680  61.0713647  42.5351777  13.4396440
  55.8606463  34.7953420  11.2764219  55.8990562  34.2617011  12.0701337
  55.3546756  34.2688626  10.6575196  68.2632732  47.2942811  14.1704877
  68.8151040  47.4574432  14.9353962  68.6038925  47.8847249  13.4984902
  63.2397225  29.6417961  14.7726761  63.3038552  30.5032791  14.3604159
  63.1764345  29.0291962  14.0399120  62.7149498  31.7141093  18.4199796
  63.3421536  31.3318170  19.0337320  61.8577416  31.4955295  18.7855488
  59.4915040  33.5217522   4.3518151  59.7868481  32.6128201   4.2985204
  58.5903076  33.5005262   4.0299153  63.0209287  31.5973519  10.3345699
  62.2995873  32.2109487  10.1953172  63.8102543  32.1331284  10.2562345
  65.8235601  28.9327945  16.6086351  66.3470003  29.1790242  17.3712660
  65.6047934  29.7647980  16.1889488  61.2202882  31.2031620   4.4757476
  60.8915588  30.3228999   4.2932582  61.5742253  31.1479289   5.3633865
  64.3344705  31.4904590   4.8432953  64.6740778  32.0190511   4.1211562
  64.7816826  31.8284996   5.6191520  67.0288146  29.8741640  14.2936021
  66.6884966  29.0749453  14.6956701  66.3227152  30.1743351  13.7212855
  67.6804618  26.9590953  12.7463344  68.5030687  26.4851431  12.6242235
  67.9242681  27.7381437  13.2462031  65.2043197  33.6510073  10.5555323
  65.0587777  33.9650377  11.4479605  64.7268400  34.2694974  10.0026222
  67.0639579  30.6412621  10.6036213  67.0501148  29.7453715  10.2668511
  67.7812008  30.6483285  11.2374499  68.9165710  31.0749962  12.6489340
  68.6583488  31.9967032  12.6473670  68.3850750  30.6780396  13.3389804
  59.6788859  36.1915418  13.4942984  59.1342327  36.9675226  13.6263259
  60.5568209  36.5386222  13.3362106  60.4654881  35.3185314  16.3873141
  59.7236617  35.4667950  16.9737772  60.1447625  35.5793580  15.5239890
  68.4098543  44.8601292  16.1853531  68.7185670  44.6150439  17.0576231
  69.2074025  45.0647931  15.6972401  60.9111494  43.2050743   8.4183536
  61.7369514  42.9054515   8.0382179  60.5605546  42.4358365   8.8673324
  65.8793027  42.5577211  10.4881209  65.2573037  41.8947916  10.1883437
  66.5497894  42.5838343   9.8054857  59.1120099  41.1237069   9.3772469
  58.2752008  40.6959244   9.1956471  59.0843745  41.3169513  10.3143261
  65.9517555  31.0358999  20.0813715  66.0005710  31.9121122  19.6991485
  66.4940069  30.4936392  19.5085359  68.1816843  31.7890372  16.8360074
  67.3120153  32.0823938  16.5642663  68.4176324  32.3730817  17.5567338
  63.1959167  37.1346312   4.9700739  62.9505209  36.2308642   5.1680949
  63.3655082  37.1363463   4.0280217  70.8855877  28.0069988  14.3525494
  71.4037821  28.7431015  14.0271983  70.5311010  28.3133982  15.1872253
  62.4654815  32.8674670   2.4686900  61.7724060  32.9419025   1.8126936
  62.2206567  32.1035013   2.9908417  69.2087431  38.9907824  20.2368127
  70.1290440  39.1686423  20.4308173  69.1737014  38.0463869  20.0847826
  58.4269596  34.1846417   9.1621401  58.1072380  33.3311726   8.8695775
  57.8803024  34.3994996   9.9179369  62.2049503  36.9008858  12.8790908
  62.4235513  37.8325966  12.8978942  62.6175277  36.5416833  13.6645712
  67.0777369  32.4742064  22.2693657  66.9774096  33.4236421  22.2005748
  66.8598911  32.1460303  21.3969727  58.2957856  37.8049329  11.1314523
  57.6021327  37.3903282  10.6184477  59.0430847  37.8469865  10.5347942
  66.9408639  35.9039203  21.0858718  66.4575720  36.7039563  21.2922608
  67.0269578  35.9147148  20.1326162  60.2094598  37.7367583   9.0080538
  60.1865286  37.8355270   8.0562421  60.5195235  38.5832734   9.3297704
  62.8681976  39.7943738  13.1227152  63.8225230  39.7627680  13.0557084
  62.6694500  39.3334361  13.9377378  63.4581358  38.3644854  15.6897950
  64.2774247  38.8588932  15.7132787  63.7318166  37.4476822  15.6615517
  61.2232205  45.3363357  10.1397350  61.0886673  44.5763758   9.5735348
  60.8064267  46.0604257   9.6726139  64.3801331  46.2332674  10.3515793
  64.2633715  47.1778107  10.2494483  63.5593777  45.9306236  10.7401592
  58.7116273  32.6982988  16.3890147  59.3575136  32.1881942  16.8777372
  58.5033424  33.4351669  16.9633572  71.2369665  39.7663835  21.8882288
  72.1060824  39.9404487  21.5268922  70.7576416  40.5858252  21.7658017
  65.4055845  46.8860936  13.5671721  66.3083092  46.9184546  13.8838216
  65.1793215  45.9561387  13.5818057  63.0513764  29.8450605  20.4865161
  63.9145225  29.4887410  20.6968486  62.4779174  29.5064500  21.1740566
  71.9266963  46.9334941  13.4331776  71.8425152  46.3260611  12.6982186
  71.1049670  47.4243959  13.4341272  71.3048635  50.6477232  16.3873141
  70.5630371  50.7959867  16.9737772  70.9841379  50.9085497  15.5239890
  69.5510027  48.0274905  16.3890147  70.1968891  47.5173859  16.8777372
  69.3427178  48.7643587  16.9633572   7.0179257  44.6380383  48.9690135
   6.2642965  44.0687781  48.8134140   7.1526798  44.6043048  49.9160770
   1.0943403  44.7909020  46.0792279   0.9561301  44.9810616  45.1513468
   0.7379621  45.5528402  46.5360330   1.1212782  46.8585547  51.0903550
   1.5549289  46.7660836  51.9386604   1.8344363  46.8343047  50.4523566
   1.9828332  46.9009247  53.6236435   2.1764222  47.8055058  53.8695710
   1.8828950  46.4416666  54.4575021   3.2370395  43.4582914  50.2684339
   3.2260271  44.3407629  49.8978272   2.3687774  43.1054465  50.0738876
   3.8395005  44.6083133  46.8733802   4.2826151  43.8590458  46.4752925
   2.9621515  44.5993270  46.4907534   0.8722209  48.6113180  43.8827731
   1.3973533  48.9500453  43.1577051   0.7844562  47.6760196  43.6990866
   2.1832187  48.5135492  56.7453680   1.8916996  48.8765472  57.5817140
   1.5704319  47.8002500  56.5667012   3.3827870  46.0788372  49.2656250
   4.2174761  46.5178176  49.4293810   3.5186998  45.6027025  48.4464496
   1.6109122  43.7339986  52.5604343   1.5785442  42.7955987  52.7464027
   2.2209746  43.8124023  51.8270168   1.7603611  40.5251030  52.6062626
   1.2442659  39.7409486  52.4192555   2.6443559  40.1969746  52.7709145
   7.4285672  44.7955993  51.7010380   8.1589061  44.5341281  52.2618083
   6.8192618  44.0584715  51.7412448   5.5100969  42.9363856  52.2984831
   4.7834133  42.8019821  51.6901322   5.0948256  43.2440684  53.1041549
   3.1278764  39.1575708  49.6518262   3.7223255  38.9171444  48.9411571
   3.2005348  38.4382838  50.2791799   5.4349837  42.4641909  48.4261684
   4.8749395  42.5335098  49.1993246   4.8293340  42.2882893  47.7061180
   7.0205855  59.1398423  51.1191639   7.6584265  59.0205170  50.4154979
   6.9026698  60.0879267  51.1779591   3.8295562  59.0925851  51.0553164
   3.4914073  58.9766915  50.1673699   4.6985330  58.6917016  51.0354170
   1.9578813  60.4074663  52.5519913   2.5542385  60.1830685  51.8376876
   2.0153784  59.6659408  53.1545361   6.5747124  56.8649876  48.1944847
   7.3610213  56.4469300  47.8435264   6.8385828  57.7695969  48.3626496
   6.7457201  62.3022727  42.8933504   6.1103034  62.3757353  43.6054409
   6.4154608  62.8916326  42.2152583  11.9755551  56.8025110  49.0977826
  12.7080723  56.2324326  49.3315655  11.2194907  56.4146710  49.5384331
   1.2500130  59.7642204  42.5894479   1.1336388  59.0887107  43.2575563
   1.3602390  59.2774578  41.7726632   3.5931671  59.2252351  46.2941168
   3.2289878  58.6982972  47.0054090   4.4498787  58.8350820  46.1207654
   9.4980971  50.5146684  53.5572434   9.1664296  51.3842095  53.3333649
   8.9026585  50.1982968  54.2366465   3.2337158  54.2542251  41.2902517
   3.4011560  55.1222487  41.6572988   3.0434327  54.4169533  40.3663806
   9.3909635  55.2341770  50.6365784   8.4826512  55.1657178  50.3424545
   9.3397230  55.7113715  51.4647610   3.2126379  56.7099908  42.2749184
   3.0926004  57.1556959  43.1134664   2.5178967  57.0585226  41.7162722
  11.2571281  53.4358208  52.4143658  10.6145661  53.7290741  51.7683453
  10.7526210  53.3211129  53.2196855   8.9111445  57.1821382  43.1029518
   9.8229301  57.4148768  42.9277215   8.4021092  57.7658426  42.5404596
   3.5483282  56.5418616  54.1124367   4.3944478  56.9658030  54.2559016
   3.4881920  55.8852240  54.8062930   7.5181027  62.1647200  50.4943099
   6.8889889  62.3292914  49.7919167   7.1306689  62.5788810  51.2654063
  11.3970259  63.1001638  47.8487463  10.7121297  63.4800539  47.2984496
  11.4814108  63.7096964  48.5819411   6.6982728  54.2022984  55.7705541
   6.4543660  54.9565045  55.2339816   6.9742658  54.5808332  56.6052788
   8.6521191  60.7461597  54.4482806   8.8638086  61.3893357  53.7717187
   8.6050939  59.9123913  53.9804736   6.2547419  53.3579417  51.3519379
   5.3931899  53.6560671  51.6436116   6.2809854  53.5749816  50.4200411
   3.0708989  61.9021608  47.7593184   3.5347334  62.1809311  46.9697807
   2.8065787  61.0005053  47.5766275   2.0077875  58.0244760  44.5682749
   2.7101918  58.4765804  45.0356676   1.6758503  57.3828579  45.1962642
   9.7667018  63.6233552  52.6205164  10.5884462  63.2213740  52.3387845
   9.7629421  63.5201786  53.5721280  17.8573012  59.9672301  48.9690135
  17.1036720  59.3979699  48.8134140  17.9920553  59.9334965  49.9160770
   6.5964103  48.3616265  53.1743748   6.2528373  49.2517907  53.0982859
   6.9643066  48.1717923  52.3113333   6.5614386  58.3524876  41.6816183
   6.0461009  59.1229481  41.9204571   6.2891694  57.6790012  42.3049245
   4.1461497  53.1974577  46.7401422   3.2903093  52.8081427  46.5607060
   4.5588449  53.2766538  45.8801207   5.6760644  50.7320920  51.1392981
   5.1725439  50.6951055  50.3260787   5.9691250  51.6413663  51.1989638
   1.9203529  50.8159650  50.1459163   2.7856526  50.6202458  49.7865052
   1.9881038  50.5870002  51.0728520  11.5348660  61.1057231  43.6169357
  10.7578103  60.7668390  43.1724519  12.2140141  61.1109854  42.9424322
   6.3500689  56.2251968  43.5075964   6.0450825  56.5398117  44.3586108
   7.3031131  56.3033388  43.5503297   9.7739967  60.5791212  50.2735965
   9.1163641  61.2690473  50.3616093  10.5780366  60.9687644  50.6169951
   8.5845426  58.9335585  48.3239906   9.0977307  59.5665576  48.8261616
   9.2346650  58.3336780  47.9583266   1.8288516  49.9203107  46.2450599
   1.1752929  49.6052124  45.6207214   1.7868990  49.2978847  46.9710422
   2.9399721  60.2022402  38.1603891   2.0326783  59.9711655  38.3595040
   3.4370753  59.4060021  38.3477873   5.0626257  56.4085040  50.5698247
   4.1448818  56.6299987  50.4119935   5.4786400  56.4831351  49.7109954
   5.8461304  57.8076456  45.7000927   6.5933123  58.3197853  45.3908049
   6.1152894  57.4860509  46.5605321   4.1187954  60.3034997  42.6827881
   3.2099174  60.0194029  42.7800351   4.1483038  60.7234075  41.8231188
   9.3507222  63.9141586  46.4519049   8.8969549  63.0732496  46.5084239
   8.7201189  64.5502984  46.7893829   8.2940141  54.8433572  47.6819716
   7.5562898  54.3310958  48.0129959   8.5466915  54.4033954  46.8702993
   8.3951769  47.6209824  48.2761486   8.7010646  46.7607188  47.9887401
   9.1204374  48.2127444  48.0760480   2.6672849  57.9163617  48.7837677
   2.7221458  56.9637454  48.7080153   1.8564051  58.0723056  49.2678975
   3.8164042  61.8443740  40.0215960   3.3783472  61.1279599  39.5621597
   4.5574483  62.0719855  39.4601051   6.2039420  56.9982501  55.3742950
   6.5588808  57.2253975  56.2337415   6.8511551  57.3300878  54.7520205
  11.9337157  60.1200937  46.0792279  11.7955056  60.3102533  45.1513468
  11.5773376  60.8820320  46.5360330  11.9606537  62.1877464  51.0903550
  12.3943043  62.0952753  51.9386604  12.6738117  62.1634965  50.4523566
  12.8222086  62.2301165  53.6236435  13.0157976  63.1346975  53.8695710
  12.7222704  61.7708584  54.4575021   4.4758397  52.1159056  56.1226763
   3.8286312  52.8149005  56.0291239   5.2459412  52.5495199  56.4903011
   4.6522531  59.9539820  54.1823583   5.5814591  60.1050980  54.0092550
   4.2313561  60.0423841  53.3272229   7.9375270  60.7028122  39.6148018
   7.3204441  59.9774950  39.5181070   7.4691758  61.4637482  39.2715092
   9.5946809  63.3766614  55.5067778   8.7073588  63.0392536  55.6294176
  10.1645360  62.6449645  55.7436543   6.2234392  53.0834466  48.6266048
   6.7203092  52.3304428  48.3067118   5.4521373  53.1198783  48.0609257
  14.0764149  58.7874832  50.2684339  14.0654026  59.6699547  49.8978272
  13.2081529  58.4346382  50.0738876   7.3064173  61.8406153  46.2004471
   6.3720451  61.9607616  46.0309175   7.4840841  60.9378620  45.9364481
   2.8069361  55.2251849  48.3537732   2.4367148  54.6722889  49.0418638
   3.3028453  54.6209982  47.8012732  10.6936724  57.6823473  46.7354505
  11.1597176  58.5151464  46.6614808  11.1444225  57.2168454  47.4399764
   8.7612955  64.0267294  43.7340657   9.0372799  63.9123888  44.6434531
   7.8917454  63.6284779  43.6952830   8.6653387  50.0504059  50.7745407
   7.7516467  50.2808286  50.9427614   9.0946488  50.1342504  51.6259439
   8.4359845  58.2393951  53.2745301   7.7831295  58.4869859  52.6197753
   8.8140225  57.4258090  52.9407778   1.9925615  52.8679520  54.1200098
   1.6522436  52.0687333  54.5220778   1.2864621  53.1681230  53.5476932
   2.6442087  49.9528832  52.5727421   3.4668156  49.4789310  52.4506312
   2.8880151  50.7319316  53.0726108   1.2850322  52.9817090  42.8690323
   2.0058684  53.3598343  42.3654040   0.6615626  53.7005967  42.9725301
   5.4281444  53.6862239  43.8048655   5.6445059  54.5686877  43.5037484
   4.9475512  53.2948453  43.0754297   2.0277049  53.6350501  50.4300290
   2.0138617  52.7391594  50.0932588   2.7449477  53.6421164  51.0638576
   3.8803179  54.0687841  52.4753417   3.6220957  54.9904912  52.4737747
   3.3488220  53.6718275  53.1653881   1.4313945  52.5164881  45.6987860
   1.5529856  51.5881527  45.8978747   1.1415987  52.5303567  44.7866175
   4.3005135  50.2019791  48.8354580   4.3226832  50.2659124  47.8806559
   4.7173194  49.3624300  49.0295086  14.6788759  59.9375051  46.8733802
  15.1219905  59.1882376  46.4752925  13.8015270  59.9285187  46.4907534
  11.7115964  63.9405098  43.8827731  12.2367288  64.2792371  43.1577051
  11.6238316  63.0052113  43.6990866  11.5207745  61.4230468  56.5011658
  11.5705750  61.2580475  57.4427181  11.4121668  60.5557727  56.1109539
   8.8111507  57.4061396  57.8170965   9.7121370  57.2667861  57.5254962
   8.8859482  57.5715851  58.7569142  13.0225942  63.8427409  56.7453680
  12.7310750  64.2057390  57.5817140  12.4098073  63.1294418  56.5667012
  14.2221624  61.4080289  49.2656250  15.0568515  61.8470093  49.4293810
  14.3580753  60.9318942  48.4464496  11.2713130  58.9660024  55.2133737
  11.7467252  59.1587670  54.4052589  10.3478695  59.0219210  54.9677121
   5.8493346  51.0007868  54.1789571   6.3675290  51.7368895  53.8536060
   5.4948479  51.3071861  55.0136331   6.1005941  47.4208150  49.6990468
   6.3807694  46.7531339  50.3250895   6.8856548  47.6137246  49.1865132
   9.9714799  55.8425784  53.4462043  10.9232222  55.9423882  53.4674267
   9.8018249  55.0504053  53.9560127   7.9929178  52.9281367  53.6321444
   7.3979111  53.2086380  52.9367933   7.7078875  53.4175268  54.4038185
  12.4502877  59.0631904  52.5604343  12.4179197  58.1247905  52.7464027
  13.0603500  59.1415941  51.8270168   4.2886208  57.9327957  38.6031547
   5.2345312  57.8034165  38.6719965   3.9100453  57.1942619  39.0800975
  12.5997365  55.8542947  52.6062626  12.0836414  55.0701404  52.4192555
  13.4837314  55.5261664  52.7709145  10.2608092  49.5983963  48.5658439
  10.0632913  49.2899051  49.4501771  10.8707798  50.3245602  48.6956368
  18.2679427  60.1247911  51.7010380  18.9982815  59.8633199  52.2618083
  17.6586372  59.3876633  51.7412448  16.3494724  58.2655773  52.2984831
  15.6227887  58.1311738  51.6901322  15.9342011  58.5732602  53.1041549
   2.4729125  55.8577933  38.5386432   1.5660580  55.5611046  38.6149146
   2.7505106  55.5607751  37.6720718   4.0891190  50.4014823  44.6930673
   3.2791919  50.0561908  45.0685919   4.7775607  50.0922367  45.2818285
   6.0181739  49.4792870  46.3154970   6.5712777  49.8988323  46.9744993
   6.2551825  48.5528618  46.3577926   1.2427909  52.7164868  38.6798411
   2.1047073  53.0419767  38.9394229   1.4278254  51.9296364  38.1671477
   9.3960546  51.5893395  45.8233634   8.8159215  52.2478199  45.4411687
   9.1296479  50.7670739  45.4121052   7.8464112  50.9898453  48.0254955
   8.3463891  51.1014987  47.2169273   8.4899720  50.6859505  48.6655763
   8.1785424  53.7493485  44.8789982   7.2911279  54.0343136  44.6610177
   8.5939413  53.5887249  44.0317259  11.5299960  53.7740006  48.5944322
  12.3060350  54.2636459  48.8668939  10.8048094  54.1998060  49.0516191
  13.9672519  54.4867625  49.6518262  14.5617009  54.2463361  48.9411571
  14.0399102  53.7674756  50.2791799   8.1526448  59.2648021  45.0940273
   8.0961649  59.7216573  44.2547905   8.7054790  58.5038706  44.9163115
  11.9631254  55.0537753  45.9190392  11.7068188  54.6534389  46.7498600
  11.3384122  55.7681547  45.7940531  16.2743591  57.7933826  48.4261684
  15.7143149  57.8627016  49.1993246  15.6687095  57.6174811  47.7061180
   9.2315335  63.9520689  41.0236463  10.0660939  63.5201888  40.8413937
   9.0699678  63.7802703  41.9513357   8.8861227  60.4552802  42.3892802
   8.8310031  60.2897074  41.4481246   8.2607282  61.1628835  42.5454992
   2.1957352  49.9560911  41.9678120   2.1836022  50.9002751  42.1246391
   3.0880774  49.7731057  41.6737581   6.0109472  46.5503688  46.2224057
   5.2441868  45.9962175  46.3680739   6.4220177  46.6225557  47.0838209
  20.3374726  65.8438601  53.5572434  20.0058051  66.7134012  53.3333649
  19.7420339  65.5274885  54.2366465  17.4357858  63.6908183  53.1743748
  17.0922127  64.5809824  53.0982859  17.8036820  63.5009840  52.3113333
  16.5154398  66.0612838  51.1392981  16.0119194  66.0242973  50.3260787
  16.8085005  66.9705580  51.1989638  12.6682271  65.2495024  46.2450599
  12.0146683  64.9344041  45.6207214  12.6262745  64.6270765  46.9710422
  19.2345523  62.9501742  48.2761486  19.5404400  62.0899105  47.9887401
  19.9598128  63.5419362  48.0760480  19.5047141  65.3795977  50.7745407
  18.5910221  65.6100204  50.9427614  19.9340243  65.4634421  51.6259439
  13.4835842  65.2820750  52.5727421  14.3061911  64.8081228  52.4506312
  13.7273905  66.0611233  53.0726108  15.1398889  65.5311709  48.8354580
  15.1620586  65.5951042  47.8806559  15.5566949  64.6916218  49.0295086
  16.6887101  66.3299785  54.1789571  17.2069045  67.0660812  53.8536060
  16.3342234  66.6363779  55.0136331  16.9399695  62.7500068  49.6990468
  17.2201449  62.0823257  50.3250895  17.7250302  62.9429163  49.1865132
  21.1001847  64.9275881  48.5658439  20.9026668  64.6190969  49.4501771
  21.7101552  65.6537519  48.6956368  14.9284945  65.7306741  44.6930673
  14.1185673  65.3853826  45.0685919  15.6169362  65.4214284  45.2818285
  16.8575493  64.8084787  46.3154970  17.4106532  65.2280241  46.9744993
  17.0945580  63.8820536  46.3577926  20.2354300  66.9185313  45.8233634
  19.6552969  67.5770117  45.4411687  19.9690233  66.0962657  45.4121052
  18.6857867  66.3190370  48.0254955  19.1857645  66.4306905  47.2169273
  19.3293475  66.0151423  48.6655763  24.8066273  69.8159543  49.6518262
  25.4010764  69.5755279  48.9411571  24.8792857  69.0966674  50.2791799
  16.8503226  61.8795606  46.2224057  16.0835622  61.3254092  46.3680739
  17.2613931  61.9517475  47.0838209   7.0179258  21.6442506  35.6935442
   6.2642967  21.0749904  35.5379446   7.1526799  21.6105170  36.6406077
   1.0943404  21.7971142  32.8037585   0.9561302  21.9872738  31.8758774
   0.7379623  22.5590525  33.2605636   1.1212783  23.8647669  37.8148857
   1.5549290  23.7722958  38.6631911   1.8344364  23.8405170  37.1768873
   1.9828333  23.9071370  40.3481742   2.1764223  24.8117180  40.5941017
   1.8828951  23.4478789  41.1820327   3.2370396  20.4645036  36.9929646
   3.2260272  21.3469752  36.6223579   2.3687776  20.1116587  36.7984183
   3.8395006  21.6145256  33.5979109   4.2826152  20.8652581  33.1998232
   2.9621516  21.6055392  33.2152841   0.8722211  25.6175303  30.6073038
   1.3973535  25.9562576  29.8822358   0.7844563  24.6822318  30.4236173
   2.1832188  25.5197614  43.4698986   1.8916997  25.8827595  44.3062447
   1.5704320  24.8064623  43.2912318   3.3827871  23.0850494  35.9901556
   4.2174762  23.5240298  36.1539117   3.5187000  22.6089147  35.1709802
   1.6109124  20.7402109  39.2849649   1.5785444  19.8018109  39.4709333
   2.2209747  20.8186145  38.5515474   1.7603612  17.5313152  39.3307933
   1.2442661  16.7471609  39.1437861   2.6443561  17.2031869  39.4954452
   7.4285673  21.8018116  38.4255686   8.1589062  21.5403404  38.9863390
   6.8192619  21.0646838  38.4657754   5.5100970  19.9425978  39.0230137
   4.7834134  19.8081943  38.4146629   5.0948257  20.2502807  39.8286855
   3.1278765  16.1637830  36.3763569   3.7223256  15.9233566  35.6656877
   3.2005349  15.4444961  37.0037105   5.4349838  19.4704031  35.1506990
   4.8749396  19.5397221  35.9238552   4.8293342  19.2945016  34.4306486
   7.0205857  36.1460545  37.8436946   7.6584267  36.0267293  37.1400286
   6.9026700  37.0941389  37.9024898   3.8295563  36.0987973  37.7798471
   3.4914074  35.9829038  36.8919005   4.6985331  35.6979138  37.7599477
   4.3115346  37.2522825  43.7384676   4.3003987  36.8575623  42.8665180
   4.4735985  36.5188898  44.3318448   5.2681937  41.6194417  29.0809826
   4.6169917  42.2048498  28.6943840   6.0626300  42.1500612  29.1404864
   1.0322607  40.0359937  42.6863860   0.7412473  40.9405568  42.5710526
   1.6679591  40.0776464  43.4007930   1.9578814  37.4136785  39.2765220
   2.5542386  37.1892808  38.5622183   2.0153785  36.6721531  39.8790668
   6.5747125  33.8711999  34.9190154   7.3610214  33.4531422  34.5680571
   6.8385829  34.7758091  35.0871802   6.7457202  39.3084849  29.6178811
   6.1103035  39.3819476  30.3299715   6.4154609  39.8978448  28.9397890
   1.2500131  36.7704327  29.3139786   1.1336389  36.0949230  29.9820870
   1.3602391  36.2836701  28.4971939   3.5931672  36.2314474  33.0186475
   3.2289879  35.7045095  33.7299396   4.4498788  35.8412943  32.8452960
   9.4980973  27.5208806  40.2817741   9.1664297  28.3904217  40.0578956
   8.9026586  27.2045090  40.9611771   3.2337159  31.2604373  28.0147823
   3.4011561  32.1284610  28.3818294   3.0434328  31.4231655  27.0909113
   5.9912492  39.7221352  39.6813654   5.6913215  40.6246391  39.5729461
   5.6463552  39.4553536  40.5334807   9.3909636  32.2403893  37.3611091
   8.4826513  32.1719301  37.0669852   9.3397232  32.7175837  38.1892917
   3.2126380  33.7162031  28.9994490   3.0926005  34.1619082  29.8379971
   2.5178968  34.0647349  28.4408028   3.4650502  33.6593538  45.3045988
   2.6883836  34.2187458  45.2948853   4.1041065  34.1450321  45.8260858
  11.2571282  30.4420331  39.1388965  10.6145663  30.7352864  38.4928760
  10.7526211  30.3273251  39.9442162   8.9111446  34.1883504  29.8274824
   9.8229302  34.4210891  29.6522522   8.4021093  34.7720548  29.2649903
   1.7196874  36.4678991  44.8663955   2.4611558  37.0064035  44.5898779
   1.0133859  37.0945280  45.0235507   7.1952214  38.6108132  43.4636117
   7.6035570  38.1690542  42.7190749   6.4729475  38.0360759  43.7170310
   3.5483284  33.5480739  40.8369674   4.3944479  33.9720152  40.9804323
   3.4881921  32.8914363  41.5308237   7.5181028  39.1709323  37.2188406
   6.8889891  39.3355037  36.5164474   7.1306690  39.5850932  37.9899370
  11.3970260  40.1063760  34.5732770  10.7121298  40.4862662  34.0229803
  11.4814109  40.7159087  35.3064717   6.6982729  31.2085107  42.4950847
   6.4543661  31.9627168  41.9585123   6.9742660  31.5870455  43.3298095
   8.6521192  37.7523719  41.1728113   8.8638087  38.3955479  40.4962494
   8.6050940  36.9186036  40.7050043   6.2547421  30.3641540  38.0764685
   5.3931900  30.6622794  38.3681423   6.2809855  30.5811939  37.1445718
   3.0708990  38.9083731  34.4838491   3.5347336  39.1871434  33.6943113
   2.8065788  38.0067175  34.3011582   2.0077876  35.0306883  31.2928056
   2.7101920  35.4827927  31.7601982   1.6758505  34.3890702  31.9207949
   9.7667020  40.6295675  39.3450470  10.5884463  40.2275862  39.0633152
   9.7629423  40.5263909  40.2966586   3.5323623  40.1779718  41.5011181
   3.5968056  40.6400125  42.3369353   2.8234547  39.5477083  41.6293491
   3.2471641  41.8447826  31.3690161   3.1117316  42.6899361  31.7975009
   3.7881453  42.0467103  30.6056095   2.6506941  29.3397285  45.6224773
   3.3916655  29.9404438  45.5429235   2.8824864  28.5974922  45.0642816
   4.8740117  42.4671392  45.4990503   4.4303971  41.6807771  45.1811408
   5.5357331  42.6550543  44.8334394   6.9721355  42.7474192  43.5271905
   6.9539831  43.5683073  43.0352174   7.8941275  42.6228267  43.7522046
   3.4294409  40.2618322  44.3695413   3.9622746  39.5006610  44.1394721
   2.9008491  39.9691973  45.1119567   6.5964104  25.3678388  39.8989055
   6.2528374  26.2580029  39.8228165   6.9643067  25.1780045  39.0358640
   6.5614387  35.3586999  28.4061490   6.0461011  36.1291603  28.6449877
   6.2891696  34.6852135  29.0294551   4.1461498  30.2036699  33.4646728
   3.2903094  29.8143550  33.2852367   4.5588450  30.2828660  32.6046514
   5.6760645  27.7383043  37.8638288   5.1725440  27.7013178  37.0506093
   5.9691252  28.6475785  37.9234945   1.9203531  27.8221772  36.8704470
   2.7856527  27.6264581  36.5110359   1.9881040  27.5932124  37.7973826
  11.5348661  38.1119353  30.3414663  10.7578104  37.7730513  29.8969825
  12.2140142  38.1171976  29.6669628   6.3500690  33.2314091  30.2321271
   6.0450826  33.5460240  31.0831414   7.3031132  33.3095511  30.2748604
   4.7947122  39.3904314  31.8814225   4.2668484  38.6557074  31.5687462
   4.2934625  40.1678990  31.6354193   9.7739968  37.5853335  36.9981271
   9.1163643  38.2752596  37.0861400  10.5780367  37.9749766  37.3415258
   8.5845427  35.9397707  35.0485213   9.0977309  36.5727699  35.5506923
   9.2346651  35.3398903  34.6828573   1.8288517  26.9265229  32.9695906
   1.1752930  26.6114246  32.3452521   1.7868992  26.3040970  33.6955729
   2.9399722  37.2084524  24.8849198   2.0326784  36.9773778  25.0840347
   3.4370754  36.4122144  25.0723180   5.8467801  45.9182031  27.8045884
   5.1729500  46.2213728  28.4130842   6.2333623  46.7211112  27.4551341
   5.0626258  33.4147163  37.2943554   4.1448819  33.6362110  37.1365242
   5.4786401  33.4893473  36.4355261   5.8461306  34.8138578  32.4246234
   6.5933125  35.3259976  32.1153356   6.1152895  34.4922631  33.2850627
   4.1187956  37.3097119  29.4073188   3.2099175  37.0256152  29.5045658
   4.1483040  37.7296198  28.5476495   9.3507223  40.9203709  33.1764356
   8.8969550  40.0794619  33.2329546   8.7201190  41.5565107  33.5139136
   8.2940143  31.8495695  34.4065023   7.5562900  31.3373081  34.7375266
   8.5466916  31.4096076  33.5948300   7.7940162  42.7580205  34.1114174
   8.0863137  43.3185262  33.3926539   8.3038783  43.0508766  34.8667333
   8.3951770  24.6271947  35.0006792   8.7010647  23.7669310  34.7132707
   9.1204375  25.2189567  34.8005786   2.6672850  34.9225740  35.5082983
   2.7221460  33.9699576  35.4325460   1.8564052  35.0785179  35.9924282
   3.8164044  38.8505863  26.7461267   3.3783473  38.1341722  26.2866904
   4.5574484  39.0781978  26.1846358   2.7573788  43.5360556  35.2007627
   2.7149966  43.7621403  34.2716159   3.6736486  43.3023931  35.3493428
   6.2039421  34.0044624  42.0988256   6.5588809  34.2316097  42.9582722
   6.8511553  34.3363001  41.4765511  11.9337158  37.1263060  32.8037585
  11.7955057  37.3164656  31.8758774  11.5773377  37.8882443  33.2605636
  11.9606538  39.1939587  37.8148857  12.3943045  39.1014876  38.6631911
  12.6738119  39.1697087  37.1768873   5.6934433  42.7941681  39.3481957
   5.7471455  43.3632617  40.1159673   4.8249214  42.9643566  38.9835994
  12.8222088  39.2363288  40.3481742  13.0157978  40.1409098  40.5941017
  12.7222706  38.7770707  41.1820327   4.4758398  29.1221178  42.8472069
   3.8286313  29.8211128  42.7536546   5.2459414  29.5557322  43.2148318
   7.8837196  39.3870030  45.9222623   7.7322703  39.1580582  45.0052706
   7.8741876  40.3440632  45.9353968   4.6522533  36.9601943  40.9068889
   5.5814593  37.1113103  40.7337856   4.2313563  37.0485964  40.0517536
   3.4510864  40.9852607  38.6767427   3.3121950  40.6171392  39.5493365
   2.6625461  41.5000247  38.5051385   4.0459016  46.0861704  30.0192963
   4.2210772  45.6149747  30.8338586   3.3591804  46.7127470  30.2474224
   5.0016080  40.3634210  36.0656265   4.6665912  40.3234980  36.9613914
   4.5020025  39.6978926  35.5926675   7.9375271  37.7090244  26.3393324
   7.3204442  36.9837073  26.2426377   7.4691760  38.4699605  25.9960398
   1.6042624  35.4821799  41.0792525   2.3142243  34.8414992  41.0379144
   1.5611932  35.7334694  42.0018706   9.5929403  42.4189153  43.9999105
   9.5341949  41.7348373  43.3329688   9.9948921  43.1608143  43.5479731
   9.5946810  40.3828737  42.2313084   8.7073589  40.0454659  42.3539483
  10.1645361  39.6511768  42.4681850   3.1247963  45.0430189  39.1974327
   3.0518135  45.8485161  39.7093632   2.6825357  45.2422155  38.3722349
   2.9137743  44.2801959  32.7077149   2.1305265  44.8223639  32.8015374
   3.6130488  44.7975939  33.1071390   6.2234393  30.0896589  35.3511354
   6.7203093  29.3366551  35.0312425   5.4521375  30.1260905  34.7854564
   5.5846647  44.9417023  41.3532486   6.2974619  45.5764488  41.2808388
   5.0936676  45.0380889  40.5372488   7.3064174  38.8468276  32.9249778
   6.3720453  38.9669738  32.7554482   7.4840842  37.9440743  32.6609788
   2.8069362  32.2313972  35.0783039   2.4367149  31.6785012  35.7663945
   3.3028454  31.6272105  34.5258039   8.7612956  41.0329416  30.4585964
   9.0372800  40.9186011  31.3679838   7.8917455  40.6346901  30.4198137
   8.6653388  27.0566182  37.4990713   7.7516468  27.2870409  37.6672920
   9.0946489  27.1404626  38.3504746   8.4359847  35.2456074  39.9990607
   7.7831297  35.4931982  39.3443060   8.8140226  34.4320212  39.6653085
   5.3967020  45.2815767  34.1018778   5.5789415  44.4637423  34.5646530
   6.2200006  45.4983459  33.6643668   5.7309186  44.2083952  31.3633826
   6.2596952  43.6976407  30.7503988   5.9937405  43.8926483  32.2279359
   4.4847420  35.9875885  46.4856644   3.8088057  35.8870014  47.1559020
   5.3075053  35.8315099  46.9492642   3.2270202  47.2942813  40.7214260
   3.7788510  47.4574434  41.4863346   3.5676396  47.8847250  40.0494285
   8.0781077  42.1204070  46.5762915   8.6220981  42.7334028  46.0817870
   7.4967922  42.6783648  47.0929928   6.3638590  45.2424788  37.7077943
   6.2389729  44.4414528  37.1988888   7.0217681  45.7370981  37.2191913
   8.4273498  43.0433808  39.3357493   7.4803834  42.9239159  39.2635819
   8.7756271  42.1556306  39.4183754   5.4319931  42.8386524  35.5361845
   5.2844894  41.9103232  35.7169415   6.2573425  42.8606615  35.0518920
   9.0354053  43.6615083  36.6226718   9.9600601  43.4557944  36.4851169
   8.8669357  43.4131484  37.5316059   1.9925616  29.8741642  40.8445405
   1.6522437  29.0749455  41.2466085   1.2864623  30.1743353  40.2722238
   2.6442088  26.9590955  39.2972728   3.4668158  26.4851433  39.1751618
   2.8880152  27.7381438  39.7971414   1.2850323  29.9879213  29.5935630
   2.0058685  30.3660466  29.0899347   0.6615627  30.7068090  29.6970608
   5.4281446  30.6924362  30.5293962   5.6445060  31.5749000  30.2282790
   4.9475513  30.3010575  29.7999604   2.0277050  30.6412623  37.1545596
   2.0138619  29.7453717  36.8177894   2.7449478  30.6483287  37.7883882
   3.8803181  31.0749963  39.1998724   3.6220958  31.9967034  39.1983054
   3.3488221  30.6780398  39.8899188   8.8249369  44.1800751  31.9788809
   8.9986247  43.6147173  31.2262662   9.3178261  44.9801645  31.7968299
   1.4313946  29.5227004  32.4233166   1.5529857  28.5943650  32.6224054
   1.1415988  29.5365689  31.5111482   4.3005136  27.2081914  35.5599886
   4.3226833  27.2721247  34.6051866   4.7173195  26.3686423  35.7540392
   9.8124542  43.4967515  29.0785707  10.5075447  44.1174208  29.2973022
  10.1547692  42.6462866  29.3538085  11.7115965  40.9467221  30.6073038
  12.2367289  41.2854493  29.8822358  11.6238318  40.0114236  30.4236173
   3.3736014  44.8601294  42.7362915   3.6823140  44.6150441  43.6085614
   4.1711496  45.0647933  42.2481785   3.3956626  47.0139204  34.9668291
   2.9561616  46.5215582  35.6601148   4.1464743  46.4712171  34.7260367
   0.9155025  31.0359001  46.6323099   0.9643181  31.9121124  46.2500869
   1.4577540  30.4936394  46.0594742  11.4009871  41.5800124  45.9124236
  10.6105415  41.5624263  45.3728735  11.1643226  42.1188418  46.6673273
  11.5207746  38.4292591  43.2256965  11.5705751  38.2642598  44.1672487
  11.4121669  37.5619850  42.8354845   8.8111509  34.4123519  44.5416271
   9.7121371  34.2729983  44.2500269   8.8859483  34.5777973  45.4814449
   3.1454314  31.7890373  43.3869458   2.2757623  32.0823939  43.1152046
   3.3813794  32.3730818  44.1076721  13.0225943  40.8489532  43.4698986
  12.7310751  41.2119513  44.3062447  12.4098074  40.1356540  43.2912318
  14.2221625  38.4142412  35.9901556  15.0568517  38.8532216  36.1539117
  14.3580754  37.9381065  35.1709802  11.2713131  35.9722147  41.9379044
  11.7467253  36.1649793  41.1297896  10.3478697  36.0281332  41.6922428
   5.8493348  28.0069990  40.9034878   6.3675292  28.7431017  40.5781367
   5.4948480  28.3133984  41.7381637   6.1005942  24.4270273  36.4235775
   6.3807696  23.7593462  37.0496201   6.8856549  24.6199368  35.9110438
   3.9039410  43.6029267  27.9860801   3.3313377  44.2219454  27.5331273
   4.4772204  44.1528628  28.5200723   9.9714800  32.8487907  40.1707350
  10.9232223  32.9486004  40.1919574   9.8018251  32.0566175  40.6805434
   7.9929180  29.9343490  40.3566751   7.3979112  30.2148503  39.6613239
   7.7078876  30.4237391  41.1283492   7.1236670  43.8866417  29.1169383
   8.0567343  43.8211978  29.3202259   7.0359883  44.7222684  28.6583916
   9.7524687  43.2032287  26.0773331   9.6738318  42.8692151  26.9709089
  10.5734354  43.6954055  26.0764803  12.4502878  36.0694026  39.2849649
  12.4179198  35.1310027  39.4709333  13.0603502  36.1478063  38.5515474
   4.2886209  34.9390079  25.3276853   5.2345314  34.8096288  25.3965271
   3.9100454  34.2004741  25.8046282  12.5997366  32.8605070  39.3307933
  12.0836415  32.0763527  39.1437861  13.4837315  32.5323786  39.4954452
  10.2608093  26.6046085  35.2903745  10.0632915  26.2961174  36.1747077
  10.8707799  27.3307724  35.4201675   4.1724901  38.9907826  46.7877510
   5.0927911  39.1686425  46.9817557   4.1374484  38.0463871  46.6357210
   2.4729126  32.8640056  25.2631739   1.5660581  32.5673169  25.3394452
   2.7505107  32.5669874  24.3966025   4.0891192  27.4076946  31.4175980
   3.2791920  27.0624030  31.7931226   4.7775609  27.0984489  32.0063592
   6.0181740  26.4854992  33.0400277   6.5712779  26.9050446  33.6990300
   6.2551826  25.5590740  33.0823233   2.0414839  32.4742066  48.8203041
   1.9411566  33.4236423  48.7515132   1.8236381  32.1460305  47.9479111
   1.2427911  29.7226991  25.4043718   2.1047075  30.0481889  25.6639535
   1.4278255  28.9358487  24.8916784   9.3960547  28.5955517  32.5478941
   8.8159216  29.2540322  32.1656993   9.1296480  27.7732862  32.1366358
   7.8464113  27.9960575  34.7500261   8.3463892  28.1077110  33.9414580
   8.4899721  27.6921628  35.3901070   1.9046109  35.9039205  47.6368102
   1.4213191  36.7039565  47.8431991   1.9907048  35.9147150  46.6835546
   8.1785425  30.7555608  31.6035289   7.2911280  31.0405258  31.3855484
   8.5939414  30.5949371  30.7562566   7.3228639  40.5200283  25.6983309
   8.0264489  40.7250285  26.3140965   6.5991287  41.0877044  25.9632393
   8.1526449  36.2710144  31.8185579   8.0961650  36.7278695  30.9793212
   8.7054791  35.5100828  31.6408422   9.2315336  40.9582812  27.7481769
  10.0660940  40.5264010  27.5659244   9.0699679  40.7864825  28.6758664
   8.8861228  37.4614925  29.1138108   8.8310032  37.2959196  28.1726553
   8.2607283  38.1690958  29.2700298   6.2007135  39.7663837  48.4391671
   7.0698295  39.9404489  48.0778306   5.7213887  40.5858254  48.3167401
   2.1957354  26.9623034  28.6923427   2.1836023  27.9064874  28.8491698
   3.0880776  26.7793179  28.3982888   2.1246918  45.6391924  36.7791184
   1.1742549  45.6393786  36.6655556   2.4279404  44.8924659  36.2627218
   6.0109473  23.5565811  32.9469364   5.2441869  23.0024297  33.0926046
   6.4220178  23.6287679  33.8083515  17.8599611  51.4752463  37.8436946
  18.4978021  51.3559210  37.1400286  17.7420454  52.4233307  37.9024898
  14.6689317  51.4279891  37.7798471  14.3307829  51.3120956  36.8919005
  15.5379086  51.0271056  37.7599477  10.5276133  53.2815367  33.7695362
   9.9640998  53.1905304  33.0011649  10.4128528  52.4615272  34.2497854
  15.1509100  52.5814743  43.7384676  15.1397741  52.1867541  42.8665180
  15.3129740  51.8480815  44.3318448   8.0740565  54.7766559  36.6079582
   8.8661857  54.4357384  36.1925881   8.3137215  54.8861534  37.5281735
  16.1075692  56.9486335  29.0809826  15.4563672  57.5340415  28.6943840
  16.9020055  57.4792530  29.1404864  10.0331319  54.0375472  29.4796961
  10.8062195  53.4904459  29.3409837  10.3856718  54.9019722  29.6911422
  11.8716362  55.3651854  42.6863860  11.5806227  56.2697485  42.5710526
  12.5073346  55.4068382  43.4007930  12.7972568  52.7428703  39.2765220
  13.3936141  52.5184725  38.5622183  12.8547540  52.0013448  39.8790668
  12.3697597  50.1968138  27.1115411  12.6223117  49.6749660  26.3498874
  11.4322156  50.0334284  27.2142094  17.4140880  49.2003917  34.9190154
  18.2003969  48.7823340  34.5680571  17.6779584  50.1050009  35.0871802
  17.5850957  54.6376767  29.6178811  16.9496790  54.7111394  30.3299715
  17.2548363  55.2270366  28.9397890  12.0893886  52.0996244  29.3139786
  11.9730144  51.4241148  29.9820870  12.1996145  51.6128618  28.4971939
  14.4325426  51.5606391  33.0186475  14.0683634  51.0337012  33.7299396
  15.2892542  51.1704860  32.8452960  14.0730913  46.5896291  28.0147823
  14.2405316  47.4576528  28.3818294  13.8828082  46.7523573  27.0909113
  16.8306247  55.0513270  39.6813654  16.5306970  55.9538309  39.5729461
  16.4857306  54.7845453  40.5334807  10.2818728  51.5027067  35.7150358
   9.3569225  51.3703281  35.9228050  10.5303141  52.2821286  36.2120301
  14.0520134  49.0453949  28.9994490  13.9319759  49.4910999  29.8379971
  13.3572723  49.3939266  28.4408028   7.6427539  51.1460340  36.5494147
   7.7719920  51.3994819  37.4633559   6.9624990  51.7388048  36.2298802
  11.8127026  61.8157590  32.6484621  11.7351056  62.7665415  32.7273102
  11.2088670  61.4703463  33.3059548  14.3044256  48.9885456  45.3045988
  13.5277590  49.5479376  45.2948853  14.9434819  49.4742239  45.8260858
  19.7505200  49.5175422  29.8274824  20.6623057  49.7502809  29.6522522
  19.2414848  50.1012466  29.2649903  12.5590628  51.7970909  44.8663955
  13.3005313  52.3355953  44.5898779  11.8527614  52.4237198  45.0235507
  18.0345968  53.9400050  43.4636117  18.4429324  53.4982460  42.7190749
  17.3123230  53.3652677  43.7170310  14.3877038  48.8772656  40.8369674
  15.2338233  49.3012070  40.9804323  14.3275676  48.2206281  41.5308237
  18.3574783  54.5001240  37.2188406  17.7283645  54.6646954  36.5164474
  17.9700445  54.9142850  37.9899370  22.2364015  55.4355678  34.5732770
  21.5515053  55.8154579  34.0229803  22.3207864  56.0451005  35.3064717
  19.4914946  53.0815637  41.1728113  19.7031842  53.7247397  40.4962494
  19.4444695  52.2477954  40.7050043  13.9102745  54.2375648  34.4838491
  14.3741090  54.5163351  33.6943113  13.6459543  53.3359093  34.3011582
  10.8026826  53.7847130  37.4218254  11.3728183  54.2134398  36.7835739
  11.3934938  53.5029715  38.1202440  12.8471631  50.3598801  31.2928056
  13.5495674  50.8119844  31.7601982  12.5152259  49.7182620  31.9207949
  11.2951992  48.9510557  45.6679265  10.6650653  49.6326838  45.9014662
  11.1888080  48.8393639  44.7232404   6.5896965  48.6182353  36.5945190
   5.7996019  48.8739882  36.1185300   7.0808212  49.4330691  36.6997230
  20.6060774  55.9587593  39.3450470  21.4278218  55.5567780  39.0633152
  20.6023177  55.8555827  40.2966586   8.5411710  48.9826933  33.5528666
   7.7442873  49.0945627  34.0712162   8.3137302  49.3213585  32.6869557
  14.3717378  55.5071636  41.5011181  14.4361810  55.9692043  42.3369353
  13.6628302  54.8769001  41.6293491   4.8734668  48.8712844  39.0260180
   5.1242706  49.7559854  39.2917756   5.4094216  48.6917445  38.2535272
  28.6966767  52.3026341  35.6935442  27.9430476  51.7333739  35.5379446
  28.8314308  52.2689005  36.6406077  14.0865395  57.1739743  31.3690161
  13.9511070  58.0191279  31.7975009  14.6275208  57.3759021  30.6056095
  10.5732735  43.2531323  48.0304516  10.1799681  42.6997522  48.7052161
  11.3898875  43.5641902  48.4211034   7.5394793  54.6915181  31.9418086
   8.0519313  55.4858432  32.0923651   8.1917506  53.9941472  31.8751688
   9.3489677  57.8080938  34.0240839   9.5256306  58.7298902  33.8361823
  10.1446511  57.4939357  34.4535219  13.4900696  44.6689202  45.6224773
  14.2310409  45.2696355  45.5429235  13.7218619  43.9266840  45.0642816
   8.6342034  49.8545570  43.9003003   8.5195549  48.9530827  44.2010102
   7.7786552  50.1009266  43.5487819  15.7133872  57.7963310  45.4990503
  15.2697726  57.0099688  45.1811408  16.3751085  57.9842460  44.8334394
  10.4720993  59.3259111  40.0251182  11.0228418  59.1976175  39.2528176
   9.6332469  59.6254000  39.6746075  17.8115110  58.0766110  43.5271905
  17.7933585  58.8974991  43.0352174  18.7335030  57.9520185  43.7522046
  14.2688164  55.5910239  44.3695413  14.8016501  54.8298527  44.1394721
  13.7402245  55.2983891  45.1119567   5.5043709  53.0203836  32.7177657
   6.3418931  53.4300844  32.5011365   5.6821977  52.0803278  32.6877851
  17.4008142  50.6878916  28.4061490  16.8854765  51.4583521  28.6449877
  17.1285450  50.0144052  29.0294551  14.9855253  45.5328617  33.4646728
  14.1296849  45.1435467  33.2852367  15.3982204  45.6120578  32.6046514
  12.7597285  43.1513690  36.8704470  13.6250282  42.9556499  36.5110359
  12.8274794  42.9224042  37.7973826  22.3742416  53.4411271  30.3414663
  21.5971859  53.1022430  29.8969825  23.0533897  53.4463894  29.6669628
  17.1894445  48.5606008  30.2321271  16.8844580  48.8752158  31.0831414
  18.1424887  48.6387428  30.2748604  15.6340877  54.7196232  31.8814225
  15.1062238  53.9848991  31.5687462  15.1328379  55.4970908  31.6354193
  20.6133723  52.9145252  36.9981271  19.9557397  53.6044514  37.0861400
  21.4174122  53.3041684  37.3415258  10.3659604  45.3815898  34.2420836
  10.9403356  45.1591079  33.5094029  10.9530587  45.4504592  34.9949438
  19.4239181  51.2689625  35.0485213  19.9371063  51.9019617  35.5506923
  20.0740405  50.6690820  34.6828573  10.6929191  47.4120359  28.2616722
   9.8566504  47.7495046  28.5825996  10.5533961  47.2769339  27.3243859
  12.6682272  42.2557147  32.9695906  12.0146684  41.9406164  32.3452521
  12.6262746  41.6332887  33.6955729  13.7793477  52.5376442  24.8849198
  12.8720539  52.3065695  25.0840347  14.2764509  51.7414061  25.0723180
  16.6861556  61.2473949  27.8045884  16.0123254  61.5505646  28.4130842
  17.0727378  62.0503030  27.4551341  15.9020012  48.7439080  37.2943554
  14.9842574  48.9654027  37.1365242  16.3180156  48.8185391  36.4355261
  16.6855060  50.1430496  32.4246234  17.4326879  50.6551893  32.1153356
  16.9546650  49.8214549  33.2850627  14.9581710  52.6389037  29.4073188
  14.0492929  52.3548070  29.5045658  14.9876794  53.0588115  28.5476495
  20.1900978  56.2495626  33.1764356  19.7363305  55.4086536  33.2329546
  19.5594944  56.8857025  33.5139136  19.1333897  47.1787612  34.4065023
  18.3956654  46.6664999  34.7375266  19.3860671  46.7387994  33.5948300
  18.6333917  58.0872123  34.1114174  18.9256891  58.6477180  33.3926539
  19.1432537  58.3800684  34.8667333   5.5269881  50.3594551  33.3888390
   5.3294280  49.7663912  32.6639457   4.9716545  50.0546761  34.1064329
  13.5066604  50.2517657  35.5082983  13.5615214  49.2991494  35.4325460
  12.6957806  50.4077097  35.9924282  14.6557798  54.1797781  26.7461267
  14.2177228  53.4633639  26.2866904  15.3968239  54.4073895  26.1846358
  11.4458964  48.8694717  33.2673362  10.6326830  49.1688888  33.6738554
  11.9417958  48.4750406  33.9847845  13.5967542  58.8652474  35.2007627
  13.5543721  59.0913320  34.2716159  14.5130241  58.6315849  35.3493428
  17.0433176  49.3336542  42.0988256  17.3982564  49.5608015  42.9582722
  17.6905307  49.6654918  41.4765511  22.7730913  52.4554978  32.8037585
  22.6348811  52.6456574  31.8758774  22.4167132  53.2174360  33.2605636
  10.9373039  46.4413073  38.8834597  11.5772418  46.3001832  38.1857561
  10.1050570  46.1547586  38.5073199  22.8000292  54.5231505  37.8148857
  23.2336799  54.4306794  38.6631911  23.5131873  54.4989005  37.1768873
  11.7133343  55.7415503  34.9969590  12.5073941  55.2465823  34.7952165
  11.0025035  55.2133366  34.6337295  16.5328187  58.1233599  39.3481957
  16.5865210  58.6924535  40.1159673  15.6642969  58.2935484  38.9835994
   8.0216106  49.8858585  31.0729342   7.0913694  49.8243040  31.2899305
   8.1173578  49.3634538  30.2765984   7.9401655  46.4113398  33.6607584
   8.2008473  47.3258731  33.5516745   8.7618828  45.9437840  33.8104197
   9.4126581  47.8251155  40.8306409  10.0849634  47.6168517  40.1819057
   8.5856367  47.6273241  40.3911641  23.6615842  54.5655205  40.3481742
  23.8551732  55.4701016  40.5941017  23.5616460  54.1062624  41.1820327
  15.3152153  44.4513096  42.8472069  14.6680068  45.1503045  42.7536546
  16.0853168  44.8849240  43.2148318  18.7230951  54.7161948  45.9222623
  18.5716457  54.4872500  45.0052706  18.7135630  55.6732549  45.9353968
  15.4916287  52.2893861  40.9068889  16.4208347  52.4405020  40.7337856
  15.0707317  52.3777881  40.0517536  14.2904619  56.3144525  38.6767427
  14.1515705  55.9463310  39.5493365  13.5019215  56.8292165  38.5051385
  14.8852771  61.4153622  30.0192963  15.0604527  60.9441665  30.8338586
  14.1985559  62.0419388  30.2474224  15.8409834  55.6926128  36.0656265
  15.5059667  55.6526898  36.9613914  15.3413780  55.0270844  35.5926675
   9.8154078  51.0993758  41.5908846   9.6773876  50.3673997  42.1920385
  10.7259001  51.0102658  41.3093033  18.7769026  53.0382162  26.3393324
  18.1598196  52.3128990  26.2426377  18.3085514  53.7991522  25.9960398
  12.4436379  50.8113717  41.0792525  13.1535997  50.1706909  41.0379144
  12.4005687  51.0626612  42.0018706  20.4323157  57.7481071  43.9999105
  20.3735703  57.0640291  43.3329688  20.8342676  58.4900061  43.5479731
  11.1565313  47.7978935  42.8988165  10.6202670  47.3469674  43.5509761
  10.5682021  47.9324844  42.1558629  10.5667572  47.2567586  25.4614629
   9.6897038  47.1356387  25.0976875  11.0425325  46.4653665  25.2093517
  20.4340565  55.7120654  42.2313084  19.5467343  55.3746576  42.3539483
  21.0039116  54.9803686  42.4681850   2.0869712  52.0444746  35.5556136
   2.7740752  51.7306476  34.9677151   1.9317840  52.9486111  35.2823387
   6.8904434  46.9334943  39.9841159   6.8062623  46.3260612  39.2491569
   6.0687140  47.4243961  39.9850656  13.9641718  60.3722107  39.1974327
  13.8911889  61.1777078  39.7093632  13.5219111  60.5714073  38.3722349
  13.7531498  59.6093877  32.7077149  12.9699019  60.1515557  32.8015374
  14.4524243  60.1267856  33.1071390  24.9157905  51.1228872  36.9929646
  24.9047781  52.0053587  36.6223579  24.0475285  50.7700423  36.7984183
  16.4240401  60.2708941  41.3532486  17.1368374  60.9056406  41.2808388
  15.9330430  60.3672807  40.5372488  18.1457928  54.1760193  32.9249778
  17.2114207  54.2961656  32.7554482  18.3234597  53.2732660  32.6609788
  13.6463116  47.5605889  35.0783039  13.2760904  47.0076930  35.7663945
  14.1422209  46.9564023  34.5258039  21.5330480  50.0177513  33.4599812
  21.9990932  50.8505504  33.3860115  21.9837980  49.5522494  34.1645070
  11.4752315  58.0203384  42.1738057  12.1761775  58.6539867  42.3267451
  11.0047430  58.3618116  41.4133696  19.6006711  56.3621334  30.4585964
  19.8766555  56.2477929  31.3679838  18.7311210  55.9638819  30.4198137
  19.2753601  50.5747992  39.9990607  18.6225051  50.8223899  39.3443060
  19.6533981  49.7612130  39.6653085  16.2360775  60.6107685  34.1018778
  16.4183169  59.7929341  34.5646530  17.0593761  60.8275377  33.6643668
  16.5702940  59.5375870  31.3633826  17.0990707  59.0268325  30.7503988
  16.8331160  59.2218400  32.2279359  15.3241174  51.3167803  46.4856644
  14.6481811  51.2161932  47.1559020  16.1468808  51.1607017  46.9492642
   7.0720033  57.5539739  39.1069160   7.6573470  56.8083427  39.2397064
   6.8744872  57.8643696  39.9905824   9.9258688  60.5890987  34.1231602
   9.2569064  61.0737114  33.6395642   9.7871558  60.8360207  35.0374981
   1.6637688  50.1245340  37.8273603   1.7021787  49.5908930  38.6210721
   1.1577981  49.5980545  37.2084580  14.0663957  62.6234730  40.7214260
  14.6182265  62.7866352  41.4863346  14.4070150  63.2139168  40.0494285
   9.0428450  44.9709880  41.3236145   9.1069777  45.8324711  40.9113543
   8.9795570  44.3583882  40.5908504   8.5180723  47.0433013  44.9709179
   9.1452761  46.6610090  45.5846704   7.6608642  46.8247215  45.3364872
  18.9174831  57.4495988  46.5762915  19.4614735  58.0625946  46.0817870
  18.3361676  58.0075566  47.0929928   5.2946265  48.8509442  30.9027534
   5.5899706  47.9420120  30.8494588   4.3934301  48.8297181  30.5808537
  17.2032344  60.5716706  37.7077943  17.0783484  59.7706446  37.1988888
  17.8611435  61.0662899  37.2191913   8.8240512  46.9265438  36.8855083
   8.1027098  47.5401406  36.7462556   9.6133768  47.4623203  36.8071729
  19.2667253  58.3725726  39.3357493  18.3197588  58.2531077  39.2635819
  19.6150026  57.4848224  39.4183754  11.6266826  44.2619865  43.1595735
  12.1501228  44.5082161  43.9222044  11.4079159  45.0939900  42.7398872
   7.0234107  46.5323539  31.0266859   6.6946813  45.6520918  30.8441965
   7.3773478  46.4771208  31.9143249  16.2713686  58.1678442  35.5361845
  16.1238648  57.2395149  35.7169415  17.0967179  58.1898533  35.0518920
  10.1375930  46.8196509  31.3942337  10.4772003  47.3482430  30.6720945
  10.5848051  47.1576915  32.1700904  19.8747808  58.9907001  36.6226718
  20.7994355  58.7849862  36.4851169  19.7063111  58.7423402  37.5316059
  12.8319371  45.2033560  40.8445405  12.4916191  44.4041373  41.2466085
  12.1258377  45.5035271  40.2722238  13.4835843  42.2882872  39.2972728
  14.3061912  41.8143350  39.1751618  13.7273906  43.0673356  39.7971414
  12.1244077  45.3171131  29.5935630  12.8452440  45.6952384  29.0899347
  11.5009381  46.0360008  29.6970608  16.2675200  46.0216280  30.5293962
  16.4838815  46.9040918  30.2282790  15.7869267  45.6302493  29.7999604
  11.0074422  48.9801993  37.1064707  10.8619002  49.2942296  37.9988988
  10.5299625  49.5986893  36.5535605  12.8670804  45.9704541  37.1545596
  12.8532373  45.0745634  36.8177894  13.5843233  45.9775205  37.7883882
  14.7196935  46.4041881  39.1998724  14.4614713  47.3258952  39.1983054
  14.1881976  46.0072316  39.8899188  19.6643124  59.5092668  31.9788809
  19.8380001  58.9439091  31.2262662  20.1572015  60.3093563  31.7968299
   5.4820084  51.5207337  40.0452368   4.9373552  52.2967145  40.1772642
   6.3599434  51.8678142  39.8871489  12.2707700  44.8518921  32.4233166
  12.3923612  43.9235567  32.6224054  11.9809743  44.8657607  31.5111482
  25.5182515  52.2729091  33.5979109  25.9613661  51.5236416  33.1998232
  24.6409025  52.2639228  33.2152841  20.6518296  58.8259433  29.0785707
  21.3469201  59.4466125  29.2973022  20.9941447  57.9754784  29.3538085
   6.2686106  50.6477234  42.9382525   5.5267842  50.7959869  43.5247155
   5.9478850  50.9085499  42.0749274  22.5509720  56.2759138  30.6073038
  23.0761044  56.6146411  29.8822358  22.4632072  55.3406154  30.4236173
  14.2129768  60.1893212  42.7362915  14.5216895  59.9442359  43.6085614
  15.0105250  60.3939850  42.2481785  14.2350380  62.3431121  34.9668291
  13.7955371  61.8507500  35.6601148  14.9858497  61.8004089  34.7260367
   6.7142719  58.5342662  34.9692919   7.5400739  58.2346434  34.5891563
   6.3636771  57.7650285  35.4182708  11.6824252  57.8869131  37.0390593
  11.0604262  57.2239836  36.7392821  12.3529119  57.9130262  36.3564241
   4.9151324  56.4528989  35.9281853   4.0783233  56.0251163  35.7465854
   4.8874970  56.6461432  36.8652644  11.7548780  46.3650919  46.6323099
  11.8036935  47.2413041  46.2500869  12.2971294  45.8228312  46.0594742
  22.2403626  56.9092042  45.9124236  21.4499169  56.8916181  45.3728735
  22.0036980  57.4480336  46.6673273  22.3601501  53.7584508  43.2256965
  22.4099506  53.5934516  44.1672487  22.2515424  52.8911767  42.8354845
  11.2437759  56.4373054  30.5149054  11.3925880  57.1208518  29.8615726
  12.0504203  56.4178144  31.0298509  19.6505263  49.7415436  44.5416271
  20.5515126  49.6021901  44.2500269  19.7253238  49.9069891  45.4814449
  13.9848068  47.1182291  43.3869458  13.1151378  47.4115857  43.1152046
  14.2207549  47.7022736  44.1076721  23.8619697  56.1781450  43.4698986
  23.5704506  56.5411430  44.3062447  23.2491829  55.4648458  43.2912318
  25.0615380  53.7434329  35.9901556  25.8962271  54.1824134  36.1539117
  25.1974509  53.2672983  35.1709802  22.1106886  51.3014064  41.9379044
  22.5861007  51.4941711  41.1297896  21.1872451  51.3573250  41.6922428
   8.9990392  52.4638232  31.5210122   8.7536434  51.5600562  31.7190333
   9.1686307  52.4655382  30.5789600   8.2686040  48.1966589  29.0196284
   7.5755285  48.2710944  28.3636320   8.0237792  47.4326933  29.5417801
  14.7433165  58.9321184  27.9860801  14.1707132  59.5511371  27.5331273
  15.3165959  59.4820546  28.5200723  17.9630425  59.2158334  29.1169383
  18.8961098  59.1503896  29.3202259  17.8753637  60.0514601  28.6583916
  20.5918441  58.5324205  26.0773331  20.5132073  58.1984068  26.9709089
  21.4128108  59.0245973  26.0764803  23.2896632  51.3985944  39.2849649
  23.2572953  50.4601945  39.4709333  23.8997256  51.4769981  38.5515474
  15.1279963  50.2681997  25.3276853  16.0739068  50.1388205  25.3965271
  14.7494208  49.5296659  25.8046282  23.4391121  48.1896988  39.3307933
  22.9230170  47.4055444  39.1437861  24.3231070  47.8615704  39.4954452
  29.1073182  52.4601951  38.4255686  29.8376571  52.1987239  38.9863390
  28.4980128  51.7230673  38.4657754  27.1888479  50.6009814  39.0230137
  26.4621643  50.4665778  38.4146629  26.7735766  50.9086642  39.8286855
  15.0118656  54.3199743  46.7877510  15.9321665  54.4978342  46.9817557
  14.9768239  53.3755789  46.6357210  13.3122881  48.1931973  25.2631739
  12.4054336  47.8965086  25.3394452  13.5898862  47.8961792  24.3966025
   4.2300821  49.5138337  35.7130785   3.9103605  48.6603645  35.4205159
   3.6834249  49.7286915  36.4688752   8.0080728  52.2300778  39.4300292
   8.2266738  53.1617886  39.4488325   8.4206502  51.8708752  40.2155095
  14.9284946  42.7368863  31.4175980  14.1185675  42.3915948  31.7931226
  15.6169363  42.4276407  32.0063592  16.8575495  41.8146910  33.0400277
  17.4106533  42.2342363  33.6990300  17.0945581  40.8882658  33.0823233
  12.8808594  47.8033984  48.8203041  12.7805321  48.7528341  48.7515132
  12.6630136  47.4752223  47.9479111  12.0821665  45.0518909  25.4043718
  12.9440829  45.3773807  25.6639535  12.2672009  44.2650405  24.8916784
   4.0989081  53.1341248  37.6823907   3.4052552  52.7195201  37.1693861
   4.8462072  53.1761785  37.0857326  20.2354302  43.9247435  32.5478941
  19.6552971  44.5832239  32.1656993  19.9690234  43.1024780  32.1366358
  12.7439864  51.2331122  47.6368102  12.2606946  52.0331483  47.8431991
  12.8300803  51.2439067  46.6835546   6.0125823  53.0659502  35.5589922
   5.9896512  53.1647189  34.6071805   6.3226460  53.9124653  35.8807088
   8.6713201  55.1235657  39.6736536   9.6256455  55.0919600  39.6066468
   8.4725725  54.6626281  40.4886762   9.2612583  53.6936773  42.2407334
  10.0805472  54.1880852  42.2642171   9.5349391  52.7768741  42.2124901
  19.0179180  46.0847526  31.6035289  18.1305035  46.3697176  31.3855484
  19.4333169  45.9241289  30.7562566   7.0263430  60.6655277  36.6906734
   6.8917898  59.9055678  36.1244732   6.6095492  61.3896177  36.2235523
  18.1622393  55.8492200  25.6983309  18.8658243  56.0542203  26.3140965
  17.4385042  56.4168962  25.9632393  18.9920203  51.6002061  31.8185579
  18.9355405  52.0570613  30.9793212  19.5448546  50.8392746  31.6408422
  10.1832556  61.5624594  36.9025176  10.0664940  62.5070026  36.8003867
   9.3625002  61.2598155  37.2910976  20.0709090  56.2874729  27.7481769
  20.9054694  55.8555928  27.5659244  19.9093433  56.1156743  28.6758664
  19.7254983  52.7906843  29.1138108  19.6703786  52.6251114  28.1726553
  19.1001038  53.4982876  29.2700298   4.5147498  48.0274907  42.9399531
   5.1606361  47.5173861  43.4286756   4.3064649  48.7643589  43.5142956
  17.0400890  55.0955755  48.4391671  17.9092049  55.2696407  48.0778306
  16.5607641  55.9150171  48.3167401  13.0351108  42.2914952  28.6923427
  13.0229778  43.2356792  28.8491698  13.9274530  42.1085097  28.3982888
  11.2087070  62.2152856  40.1181105  12.1114317  62.2476466  40.4347600
  10.9824440  61.2853307  40.1327441  12.9640672  60.9683842  36.7791184
  12.0136303  60.9685704  36.6655556  13.2673158  60.2216577  36.2627218
  16.8503228  38.8857728  32.9469364  16.0835623  38.3316215  33.0926046
  17.2613933  38.9579597  33.8083515   8.8544989  45.1742524  47.0374545
   9.7176450  44.8179329  47.2477869   8.2810399  44.8356419  47.7249949
  28.6993366  66.8044381  37.8436946  29.3371776  66.6851128  37.1400286
  28.5814208  67.7525224  37.9024898  25.5083072  66.7571809  37.7798471
  25.1701583  66.6412873  36.8919005  26.3772840  66.3562974  37.7599477
  21.3669888  68.6107285  33.7695362  20.8034753  68.5197222  33.0011649
  21.2522283  67.7907190  34.2497854  25.9902855  67.9106660  43.7384676
  25.9791496  67.5159459  42.8665180  26.1523494  67.1772733  44.3318448
  23.6366323  68.0720621  39.2765220  24.2329895  67.8476643  38.5622183
  23.6941294  67.3305366  39.8790668  23.2091351  65.5260056  27.1115411
  23.4616872  65.0041577  26.3498874  22.2715910  65.3626201  27.2142094
  28.2534634  64.5295834  34.9190154  29.0397723  64.1115258  34.5680571
  28.5173338  65.4341927  35.0871802  28.4244711  69.9668685  29.6178811
  27.7890544  70.0403311  30.3299715  28.0942118  70.5562284  28.9397890
  33.6543061  64.4671068  35.8223132  34.3868233  63.8970284  36.0560962
  32.8982417  64.0792668  36.2629638  22.9287640  67.4288162  29.3139786
  22.8123898  66.7533065  29.9820870  23.0389900  66.9420536  28.4971939
  25.2719181  66.8898309  33.0186475  24.9077388  66.3628930  33.7299396
  26.1286297  66.4996778  32.8452960  31.1768482  58.1792642  40.2817741
  30.8451806  59.0488053  40.0578956  30.5814095  57.8628926  40.9611771
  24.9124668  61.9188209  28.0147823  25.0799070  62.7868445  28.3818294
  24.7221837  62.0815490  27.0909113  21.1212483  66.8318985  35.7150358
  20.1962979  66.6995199  35.9228050  21.3696896  67.6113204  36.2120301
  31.0697145  62.8987728  37.3611091  30.1614022  62.8303136  37.0669852
  31.0184741  63.3759673  38.1892917  24.8913889  64.3745866  28.9994490
  24.7713514  64.8202917  29.8379971  24.1966477  64.7231184  28.4408028
  18.4821294  66.4752258  36.5494147  18.6113675  66.7286737  37.4633559
  17.8018745  67.0679966  36.2298802  25.1438011  64.3177373  45.3045988
  24.3671345  64.8771294  45.2948853  25.7828574  64.8034156  45.8260858
  32.9358791  61.1004166  39.1388965  32.2933172  61.3936699  38.4928760
  32.4313720  60.9857087  39.9442162  30.5898955  64.8467339  29.8274824
  31.5016811  65.0794726  29.6522522  30.0808602  65.4304384  29.2649903
  23.3984383  67.1262827  44.8663955  24.1399067  67.6647871  44.5898779
  22.6921368  67.7529116  45.0235507  28.8739723  69.2691967  43.4636117
  29.2823079  68.8274378  42.7190749  28.1516984  68.6944595  43.7170310
  25.2270793  64.2064574  40.8369674  26.0731988  64.6303988  40.9804323
  25.1669430  63.5498198  41.5308237  29.1968537  69.8293158  37.2188406
  28.5677400  69.9938872  36.5164474  28.8094199  70.2434767  37.9899370
  33.0757769  70.7647596  34.5732770  32.3908807  71.1446497  34.0229803
  33.1601618  71.3742922  35.3064717  28.3770238  61.8668942  42.4950847
  28.1331170  62.6211003  41.9585123  28.6530168  62.2454290  43.3298095
  30.3308701  68.4107555  41.1728113  30.5425596  69.0539315  40.4962494
  30.2838449  67.5769871  40.7050043  27.9334930  61.0225375  38.0764685
  27.0719409  61.3206629  38.3681423  27.9597364  61.2395774  37.1445718
  24.7496499  69.5667566  34.4838491  25.2134845  69.8455269  33.6943113
  24.4853297  68.6651011  34.3011582  23.6865385  65.6890718  31.2928056
  24.3889429  66.1411762  31.7601982  23.3546014  65.0474537  31.9207949
  22.1345747  64.2802475  45.6679265  21.5044407  64.9618756  45.9014662
  22.0281835  64.1685557  44.7232404  17.4290719  63.9474271  36.5945190
  16.6389773  64.2031800  36.1185300  17.9201967  64.7622609  36.6997230
  31.4454529  71.2879510  39.3450470  32.2671972  70.8859697  39.0633152
  31.4416932  71.1847744  40.2966586  19.3805465  64.3118850  33.5528666
  18.5836628  64.4237545  34.0712162  19.1531057  64.6505502  32.6869557
  15.7128422  64.2004761  39.0260180  15.9636461  65.0851771  39.2917756
  16.2487971  64.0209363  38.2535272  39.5360522  67.6318259  35.6935442
  38.7824230  67.0625657  35.5379446  39.6708063  67.5980923  36.6406077
  21.4126489  58.5823241  48.0304516  21.0193435  58.0289439  48.7052161
  22.2292630  58.8933819  48.4211034  24.3294450  59.9981120  45.6224773
  25.0704164  60.5988273  45.5429235  24.5612373  59.2558758  45.0642816
  19.4735788  65.1837487  43.9003003  19.3589304  64.2822744  44.2010102
  18.6180306  65.4301184  43.5487819  28.2751613  56.0262223  39.8989055
  27.9315883  56.9163865  39.8228165  28.6430576  55.8363881  39.0358640
  28.2401896  66.0170834  28.4061490  27.7248520  66.7875439  28.6449877
  27.9679205  65.3435970  29.0294551  25.8249007  60.8620535  33.4646728
  24.9690603  60.4727385  33.2852367  26.2375959  60.9412496  32.6046514
  27.3548154  58.3966878  37.8638288  26.8512949  58.3597013  37.0506093
  27.6478761  59.3059621  37.9234945  23.5991040  58.4805608  36.8704470
  24.4644036  58.2848416  36.5110359  23.6668549  58.2515960  37.7973826
  33.2136170  68.7703189  30.3414663  32.4365613  68.4314348  29.8969825
  33.8927651  68.7755812  29.6669628  28.0288199  63.8897926  30.2321271
  27.7238335  64.2044075  31.0831414  28.9818641  63.9679346  30.2748604
  31.4527477  68.2437170  36.9981271  30.7951152  68.9336431  37.0861400
  32.2567876  68.6333602  37.3415258  21.2053359  60.7107816  34.2420836
  21.7797111  60.4882997  33.5094029  21.7924341  60.7796510  34.9949438
  30.2632936  66.5981543  35.0485213  30.7764818  67.2311534  35.5506923
  30.9134160  65.9982738  34.6828573  21.5322946  62.7412277  28.2616722
  20.6960258  63.0786963  28.5825996  21.3927715  62.6061256  27.3243859
  23.5076026  57.5849065  32.9695906  22.8540439  57.2698082  32.3452521
  23.4656501  56.9624805  33.6955729  24.6187231  67.8668360  24.8849198
  23.7114293  67.6357613  25.0840347  25.1158263  67.0705979  25.0723180
  26.7413767  64.0730998  37.2943554  25.8236328  64.2945945  37.1365242
  27.1573910  64.1477309  36.4355261  27.5248815  65.4722414  32.4246234
  28.2720633  65.9843811  32.1153356  27.7940404  65.1506467  33.2850627
  25.7975465  67.9680955  29.4073188  24.8886684  67.6839987  29.5045658
  25.8270549  68.3880033  28.5476495  31.0294732  71.5787544  33.1764356
  30.5757059  70.7378454  33.2329546  30.3988699  72.2148942  33.5139136
  29.9727652  62.5079530  34.4065023  29.2350408  61.9956916  34.7375266
  30.2254425  62.0679912  33.5948300  30.0739279  55.2855782  35.0006792
  30.3798156  54.4253145  34.7132707  30.7991884  55.8773402  34.8005786
  16.3663635  65.6886469  33.3888390  16.1688035  65.0955829  32.6639457
  15.8110299  65.3838679  34.1064329  24.3460359  65.5809575  35.5082983
  24.4008969  64.6283412  35.4325460  23.5351561  65.7369014  35.9924282
  25.4951553  69.5089698  26.7461267  25.0570982  68.7925557  26.2866904
  26.2361993  69.7365813  26.1846358  22.2852719  64.1986635  33.2673362
  21.4720584  64.4980805  33.6738554  22.7811713  63.8042324  33.9847845
  27.8826930  64.6628459  42.0988256  28.2376318  64.8899932  42.9582722
  28.5299062  64.9946836  41.4765511  33.6124667  67.7846895  32.8037585
  33.4742566  67.9748491  31.8758774  33.2560886  68.5466278  33.2605636
  21.7766793  61.7704990  38.8834597  22.4166173  61.6293749  38.1857561
  20.9444324  61.4839504  38.5073199  33.6394047  69.8523422  37.8148857
  34.0730554  69.7598711  38.6631911  34.3525628  69.8280923  37.1768873
  18.8609861  65.2150503  31.0729342  17.9307449  65.1534958  31.2899305
  18.9567333  64.6926455  30.2765984  18.7795410  61.7405315  33.6607584
  19.0402227  62.6550649  33.5516745  19.6012582  61.2729758  33.8104197
  20.2520335  63.1543073  40.8306409  20.9243389  62.9460435  40.1819057
  19.4250122  62.9565159  40.3911641  34.5009596  69.8947123  40.3481742
  34.6945487  70.7992933  40.5941017  34.4010215  69.4354542  41.1820327
  26.1545907  59.7805013  42.8472069  25.5073822  60.4794963  42.7536546
  26.9246923  60.2141157  43.2148318  29.5624705  70.0453866  45.9222623
  29.4110212  69.8164417  45.0052706  29.5529385  71.0024467  45.9353968
  26.3310042  67.6185778  40.9068889  27.2602102  67.7696938  40.7337856
  25.9101072  67.7069799  40.0517536  20.6547832  66.4285676  41.5908846
  20.5167630  65.6965914  42.1920385  21.5652756  66.3394576  41.3093033
  29.6162780  68.3674080  26.3393324  28.9991951  67.6420908  26.2426377
  29.1479269  69.1283440  25.9960398  23.2830133  66.1405635  41.0792525
  23.9929752  65.4998827  41.0379144  23.2399441  66.3918530  42.0018706
  21.9959067  63.1270853  42.8988165  21.4596424  62.6761591  43.5509761
  21.4075776  63.2616762  42.1558629  21.4061326  62.5859504  25.4614629
  20.5290792  62.4648305  25.0976875  21.8819079  61.7945582  25.2093517
  31.2734319  71.0412572  42.2313084  30.3861098  70.7038494  42.3539483
  31.8432870  70.3095603  42.4681850  17.7298188  62.2626860  39.9841159
  17.6456377  61.6552530  39.2491569  16.9080895  62.7535879  39.9850656
  27.9021902  60.7480424  35.3511354  28.3990602  59.9950386  35.0312425
  27.1308884  60.7844741  34.7854564  35.7551660  66.4520789  36.9929646
  35.7441536  67.3345505  36.6223579  34.8869039  66.0992340  36.7984183
  28.9851683  69.5052111  32.9249778  28.0507962  69.6253574  32.7554482
  29.1628351  68.6024578  32.6609788  24.4856871  62.8897807  35.0783039
  24.1154658  62.3368847  35.7663945  24.9815963  62.2855940  34.5258039
  32.3724234  65.3469430  33.4599812  32.8384686  66.1797422  33.3860115
  32.8231735  64.8814412  34.1645070  30.4400465  71.6913252  30.4585964
  30.7160309  71.5769846  31.3679838  29.5704964  71.2930737  30.4198137
  30.3440897  57.7150017  37.4990713  29.4303977  57.9454244  37.6672920
  30.7733998  57.7988462  38.3504746  30.1147355  65.9039909  39.9990607
  29.4618806  66.1515817  39.3443060  30.4927735  65.0904048  39.6653085
  26.1634929  66.6459720  46.4856644  25.4875566  66.5453850  47.1559020
  26.9862562  66.4898934  46.9492642  12.5031442  65.4537257  37.8273603
  12.5415542  64.9200848  38.6210721  11.9971735  64.9272463  37.2084580
  19.8822205  60.3001798  41.3236145  19.9463531  61.1616629  40.9113543
  19.8189325  59.6875799  40.5908504  19.3574477  62.3724930  44.9709179
  19.9846516  61.9902008  45.5846704  18.5002396  62.1539132  45.3364872
  16.1340020  64.1801359  30.9027534  16.4293461  63.2712038  30.8494588
  15.2328056  64.1589099  30.5808537  19.6634267  62.2557356  36.8855083
  18.9420853  62.8693324  36.7462556  20.4527523  62.7915121  36.8071729
  22.4660580  59.5911782  43.1595735  22.9894982  59.8374079  43.9222044
  22.2472914  60.4231817  42.7398872  17.8627861  61.8615457  31.0266859
  17.5340568  60.9812836  30.8441965  18.2167232  61.8063126  31.9143249
  20.9769685  62.1488427  31.3942337  21.3165757  62.6774348  30.6720945
  21.4241805  62.4868833  32.1700904  23.6713125  60.5325478  40.8445405
  23.3309946  59.7333291  41.2466085  22.9652132  60.8327188  40.2722238
  24.3229597  57.6174790  39.2972728  25.1455667  57.1435268  39.1751618
  24.5667661  58.3965274  39.7971414  22.9637832  60.6463048  29.5935630
  23.6846194  61.0244301  29.0899347  22.3403136  61.3651925  29.6970608
  27.1068955  61.3508197  30.5293962  27.3232569  62.2332835  30.2282790
  26.6263022  60.9594411  29.7999604  21.8468176  64.3093911  37.1064707
  21.7012757  64.6234214  37.9988988  21.3693380  64.9278811  36.5535605
  23.7064559  61.2996459  37.1545596  23.6926128  60.4037552  36.8177894
  24.4236987  61.3067122  37.7883882  25.5590690  61.7333799  39.1998724
  25.3008467  62.6550869  39.1983054  25.0275730  61.3364233  39.8899188
  23.1101455  60.1810839  32.4233166  23.2317366  59.2527485  32.6224054
  22.8203497  60.1949525  31.5111482  25.9792645  57.8665749  35.5599886
  26.0014342  57.9305082  34.6051866  26.3960704  57.0270258  35.7540392
  36.3576270  67.6021009  33.5979109  36.8007416  66.8528334  33.1998232
  35.4802780  67.5931145  33.2152841  17.1079860  65.9769151  42.9382525
  16.3661596  66.1251787  43.5247155  16.7872604  66.2377417  42.0749274
  33.3903474  71.6051056  30.6073038  33.9154798  71.9438329  29.8822358
  33.3025827  70.6698071  30.4236173  22.5942534  61.6942836  46.6323099
  22.6430690  62.5704959  46.2500869  23.1365049  61.1520229  46.0594742
  33.0797380  72.2383960  45.9124236  32.2892924  72.2208098  45.3728735
  32.8430735  72.7772253  46.6673273  33.1995255  69.0876426  43.2256965
  33.2493260  68.9226433  44.1672487  33.0909178  68.2203685  42.8354845
  30.4899018  65.0707354  44.5416271  31.3908880  64.9313819  44.2500269
  30.5646992  65.2361809  45.4814449  24.8241823  62.4474209  43.3869458
  23.9545132  62.7407775  43.1152046  25.0601303  63.0314654  44.1076721
  34.7013452  71.5073367  43.4698986  34.4098260  71.8703348  44.3062447
  34.0885583  70.7940376  43.2912318  35.9009134  69.0726247  35.9901556
  36.7356026  69.5116051  36.1539117  36.0368263  68.5964900  35.1709802
  32.9500640  66.6305982  41.9379044  33.4254762  66.8233628  41.1297896
  32.0266206  66.6865168  41.6922428  19.8384147  67.7930149  31.5210122
  19.5930189  66.8892479  31.7190333  20.0080061  67.7947300  30.5789600
  27.5280857  58.6653826  40.9034878  28.0462801  59.4014853  40.5781367
  27.1735989  58.9717819  41.7381637  19.1079794  63.5258507  29.0196284
  18.4149039  63.6002862  28.3636320  18.8631546  62.7618850  29.5417801
  27.7793451  55.0854108  36.4235775  28.0595205  54.4177297  37.0496201
  28.5644058  55.2783204  35.9110438  31.6502309  63.5071742  40.1707350
  32.6019732  63.6069840  40.1919574  31.4805760  62.7150011  40.6805434
  29.6716689  60.5927325  40.3566751  29.0766621  60.8732338  39.6613239
  29.3866385  61.0821226  41.1283492  34.1290387  66.7277862  39.2849649
  34.0966707  65.7893863  39.4709333  34.7391011  66.8061899  38.5515474
  25.9673718  65.5973915  25.3276853  26.9132823  65.4680123  25.3965271
  25.5887963  64.8588577  25.8046282  34.2784875  63.5188905  39.3307933
  33.7623924  62.7347362  39.1437861  35.1624824  63.1907622  39.4954452
  31.9395602  57.2629921  35.2903745  31.7420424  56.9545009  36.1747077
  32.5495308  57.9891560  35.4201675  39.9466937  67.7893869  38.4255686
  40.6770325  67.5279157  38.9863390  39.3373882  67.0522591  38.4657754
  38.0282234  65.9301731  39.0230137  37.3015398  65.7957696  38.4146629
  37.6129521  66.2378560  39.8286855  25.8512410  69.6491661  46.7877510
  26.7715420  69.8270260  46.9817557  25.8161993  68.7047706  46.6357210
  24.1516635  63.5223891  25.2631739  23.2448090  63.2257004  25.3394452
  24.4292616  63.2253709  24.3966025  15.0694575  64.8430255  35.7130785
  14.7497360  63.9895563  35.4205159  14.5228004  65.0578833  36.4688752
  25.7678701  58.0660781  31.4175980  24.9579429  57.7207866  31.7931226
  26.4563118  57.7568325  32.0063592  23.7202348  63.1325901  48.8203041
  23.6199075  64.0820258  48.7515132  23.5023890  62.8044140  47.9479111
  22.9215420  60.3810826  25.4043718  23.7834584  60.7065725  25.6639535
  23.1065764  59.5942322  24.8916784  31.0748056  59.2539353  32.5478941
  30.4946725  59.9124157  32.1656993  30.8083989  58.4316697  32.1366358
  29.5251622  58.6544411  34.7500261  30.0251401  58.7660945  33.9414580
  30.1687230  58.3505463  35.3901070  23.5833618  66.5623040  47.6368102
  23.1000700  67.3623400  47.8431991  23.6694557  66.5730985  46.6835546
  29.8572934  61.4139443  31.6035289  28.9698789  61.6989094  31.3855484
  30.2726923  61.2533207  30.7562566  33.2087470  61.4385964  35.3189628
  33.9847860  61.9282417  35.5914245  32.4835604  61.8644018  35.7761498
  35.6460029  62.1513583  36.3763569  36.2404520  61.9109319  35.6656877
  35.7186613  61.4320714  37.0037105  29.8313958  66.9293979  31.8185579
  29.7749159  67.3862531  30.9793212  30.3842300  66.1684664  31.6408422
  33.6418764  62.7183711  32.6435699  33.3855698  62.3180347  33.4743906
  33.0171632  63.4327505  32.5185838  37.9531102  65.4579784  35.1506990
  37.3930660  65.5272974  35.9238552  37.3474605  65.2820769  34.4306486
  30.9102845  71.6166647  27.7481769  31.7448449  71.1847846  27.5659244
  30.7487188  71.4448661  28.6758664  30.5648737  68.1198760  29.1138108
  30.5097541  67.9543032  28.1726553  29.9394792  68.8274793  29.2700298
  15.3541252  63.3566825  42.9399531  16.0000116  62.8465779  43.4286756
  15.1458403  64.0935506  43.5142956  23.8744863  57.6206869  28.6923427
  23.8623532  58.5648709  28.8491698  24.7668284  57.4377015  28.3982888
  19.6938743  60.5034442  47.0374545  20.5570205  60.1471247  47.2477869
  19.1204154  60.1648337  47.7249949  42.0162236  73.5084559  40.2817741
  41.6845561  74.3779970  40.0578956  41.4207849  73.1920843  40.9611771
  39.1145368  71.3554141  39.8989055  38.7709637  72.2455782  39.8228165
  39.4824330  71.1655798  39.0358640  38.1941908  73.7258796  37.8638288
  37.6906704  73.6888931  37.0506093  38.4872515  74.6351538  37.9234945
  34.3469781  72.9140982  32.9695906  33.6934193  72.5989999  32.3452521
  34.3050255  72.2916723  33.6955729  40.9133034  70.6147700  35.0006792
  41.2191910  69.7545063  34.7132707  41.6385638  71.2065320  34.8005786
  41.1834651  73.0441935  37.4990713  40.2697731  73.2746162  37.6672920
  41.6127753  73.1280379  38.3504746  35.1623352  72.9466708  39.2972728
  35.9849421  72.4727186  39.1751618  35.4061415  73.7257191  39.7971414
  36.8186400  73.1957667  35.5599886  36.8408097  73.2597000  34.6051866
  37.2354459  72.3562176  35.7540392  38.3674611  73.9945743  40.9034878
  38.8856555  74.7306770  40.5781367  38.0129744  74.3009737  41.7381637
  38.6187205  70.4146026  36.4235775  38.8988959  69.7469215  37.0496201
  39.4037812  70.6075121  35.9110438  42.7789357  72.5921838  35.2903745
  42.5814178  72.2836927  36.1747077  43.3889062  73.3183477  35.4201675
  36.6072455  73.3952699  31.4175980  35.7973184  73.0499784  31.7931226
  37.2956872  73.0860242  32.0063592  38.5363003  72.4730745  33.0400277
  39.0894042  72.8926199  33.6990300  38.7733090  71.5466493  33.0823233
  41.9141811  74.5831271  32.5478941  41.3340480  75.2416075  32.1656993
  41.6477743  73.7608615  32.1366358  40.3645377  73.9836328  34.7500261
  40.8645155  74.0952863  33.9414580  41.0080985  73.6797381  35.3901070
  46.4853783  77.4805501  36.3763569  47.0798274  77.2401237  35.6656877
  46.5580367  76.7612632  37.0037105  38.5290737  69.5441564  32.9469364
  37.7623132  68.9900050  33.0926046  38.9401442  69.6163432  33.8083515
   7.0205858  13.1522668  24.5682253   7.6584268  13.0329415  23.8645593
   6.9026701  14.1003512  24.6270205   4.3115347  14.2584948  30.4629983
   4.3003988  13.8637746  29.5910486   4.4735987  13.5251020  31.0563754
   5.2681939  18.6256540  15.8055133   4.6169918  19.2110620  15.4189147
   6.0626301  19.1562735  15.8650171   1.0322608  17.0422059  29.4109167
   0.7412474  17.9467690  29.2955833   1.6679593  17.0838587  30.1253236
   1.9578815  14.4198908  26.0010526   2.5542387  14.1954930  25.2867489
   2.0153787  13.6783653  26.6035974   6.5747126  10.8774122  21.6435461
   7.3610216  10.4593545  21.2925878   6.8385831  11.7820214  21.8117109
  11.9755553  10.8149355  22.5468439  12.7080725  10.2448572  22.7806269
  11.2194909  10.4270955  22.9874945   3.5931673  13.2376596  19.7431782
   3.2289880  12.7107217  20.4544703   4.4498789  12.8475065  19.5698267
   5.9912493  16.7283475  26.4058960   5.6913216  17.6308514  26.2974768
   5.6463553  16.4615658  27.2580113   9.3909637   9.2466015  24.0856398
   8.4826514   9.1781424  23.7915159   9.3397233   9.7237960  24.9138223
   3.4650503  10.6655661  32.0291295   2.6883837  11.2249581  32.0194160
   4.1041066  11.1512444  32.5506165  11.2571284   7.4482454  25.8634272
  10.6145664   7.7414987  25.2174066  10.7526212   7.3335374  26.6687468
   1.7196875  13.4741114  31.5909262   2.4611560  14.0126158  31.3144086
   1.0133861  14.1007403  31.7480814   7.1952215  15.6170255  30.1881424
   7.6035571  15.1752665  29.4436056   6.4729476  15.0422882  30.4415616
   3.5483285  10.5542861  27.5614980   4.3944480  10.9782275  27.7049629
   3.4881923   9.8976486  28.2553544   7.5181030  16.1771445  23.9433712
   6.8889892  16.3417159  23.2409780   7.1306692  16.5913055  24.7144676
  11.3970261  17.1125883  21.2978076  10.7121300  17.4924784  20.7475109
  11.4814111  17.7221210  22.0310024   6.6982730   8.2147230  29.2196154
   6.4543662   8.9689290  28.6830430   6.9742661   8.5932577  30.0543401
   8.6521193  14.7585842  27.8973420   8.8638088  15.4017602  27.2207801
   8.6050941  13.9248159  27.4295350   6.2547422   7.3703663  24.8009992
   5.3931901   7.6684916  25.0926729   6.2809857   7.5874062  23.8691024
   3.0708991  15.9145853  21.2083797   3.5347337  16.1933556  20.4188420
   2.8065790  15.0129298  21.0256888   9.7667021  17.6357797  26.0695777
  10.5884465  17.2337985  25.7878459   9.7629424  17.5326032  27.0211893
   3.5323624  17.1841841  28.2256488   3.5968057  17.6462248  29.0614659
   2.8234548  16.5539206  28.3538797  17.8573014  13.9796546  22.4180748
  17.1036722  13.4103944  22.2624753  17.9920555  13.9459210  23.3651383
   3.2471642  18.8509948  18.0935468   3.1117317  19.6961484  18.5220316
   3.7881455  19.0529226  17.3301402   4.8740118  19.4733515  32.2235810
   4.4303973  18.6869893  31.9056714   5.5357332  19.6612665  31.5579701
   6.9721357  19.7536315  30.2517211   6.9539832  20.5745196  29.7597480
   7.8941277  19.6290390  30.4767352   3.4294411  17.2680444  31.0940720
   3.9622747  16.5068732  30.8640028   2.9008492  16.9754096  31.8364874
  11.5348662  15.1181476  17.0659970  10.7578105  14.7792635  16.6215132
  12.2140143  15.1234099  16.3914935   4.7947123  16.3966437  18.6059532
   4.2668485  15.6619196  18.2932769   4.2934626  17.1741113  18.3599500
   9.7739969  14.5915457  23.7226578   9.1163644  15.2814719  23.8106707
  10.5780369  14.9811889  24.0660564   8.5845428  12.9459830  21.7730520
   9.0977310  13.5789822  22.2752229   9.2346652  12.3461025  21.4073880
   5.8467802  22.9244154  14.5291191   5.1729501  23.2275851  15.1376149
   6.2333624  23.7273234  14.1796648   5.0626259  10.4209285  24.0188860
   4.1448820  10.6424232  23.8610548   5.4786403  10.4955596  23.1600568
   5.8461307  11.8200701  19.1491540   6.5933126  12.3322098  18.8398662
   6.1152896  11.4984754  20.0095934   9.3507224  17.9265831  19.9009662
   8.8969552  17.0856741  19.9574853   8.7201191  18.5627230  20.2384442
   8.2940144   8.8557817  21.1310330   7.5562901   8.3435203  21.4620572
   8.5466918   8.4158199  20.3193607   7.7940164  19.7642328  20.8359480
   8.0863138  20.3247385  20.1171846   8.3038784  20.0570889  21.5912640
   2.6672851  11.9287862  22.2328290   2.7221461  10.9761699  22.1570767
   1.8564053  12.0847301  22.7169588   2.7573789  20.5422679  21.9252934
   2.7149968  20.7683525  20.9961466   3.6736488  20.3086054  22.0738735
   6.2039423  11.0106747  28.8233563   6.5588810  11.2378220  29.6828029
   6.8511554  11.3425123  28.2010818  11.9337160  14.1325182  19.5282892
  11.7955058  14.3226778  18.6004081  11.5773378  14.8944565  19.9850943
  11.9606539  16.2001709  24.5394163  12.3943046  16.1076999  25.3877217
  12.6738120  16.1759210  23.9014179   5.6934434  19.8003804  26.0727264
   5.7471456  20.3694740  26.8404980   4.8249215  19.9705689  25.7081301
  12.8222089  16.2425410  27.0727049  13.0157979  17.1471221  27.3186324
  12.7222707  15.7832829  27.9065634   7.8837197  16.3932153  32.6467929
   7.7322704  16.1642705  31.7298013   7.8741877  17.3502754  32.6599274
   4.6522534  13.9664066  27.6314196   5.5814594  14.1175225  27.4583163
   4.2313564  14.0548086  26.7762842   3.4510866  17.9914730  25.4012733
   3.3121951  17.6233514  26.2738672   2.6625462  18.5062369  25.2296691
   4.0459018  23.0923826  16.7438270   4.2210773  22.6211870  17.5583893
   3.3591806  23.7189593  16.9719531   5.0016081  17.3696333  22.7901571
   4.6665913  17.3297103  23.6859221   4.5020026  16.7041049  22.3171981
   1.6042625  12.4883922  27.8037832   2.3142244  11.8477114  27.7624450
   1.5611934  12.7396817  28.7264013   9.5929404  19.4251275  30.7244411
   9.5341950  18.7410496  30.0574994   9.9948922  20.1670265  30.2725037
   9.5946811  17.3890859  28.9558391   8.7073590  17.0516781  29.0784790
  10.1645362  16.6573891  29.1927156   3.1247965  22.0492312  25.9219634
   3.0518136  22.8547283  26.4338939   2.6825358  22.2484278  25.0967656
   2.9137744  21.2864082  19.4322456   2.1305266  21.8285762  19.5260680
   3.6130490  21.8038061  19.8316697  14.0764152  12.7999077  23.7174953
  14.0654028  13.6823792  23.3468886  13.2081531  12.4470628  23.5229490
   5.5846648  21.9479146  28.0777793   6.2974620  22.5826611  28.0053694
   5.0936677  22.0443012  27.2617795   7.3064175  15.8530398  19.6495084
   6.3720454  15.9731861  19.4799789   7.4840844  14.9502865  19.3855094
  10.6936727  11.6947718  20.1845119  11.1597179  12.5275709  20.1105421
  11.1444227  11.2292699  20.8890377   8.4359848  12.2518197  26.7235914
   7.7831298  12.4994104  26.0688367   8.8140228  11.4382335  26.3898391
   5.3967022  22.2877890  20.8264084   5.5789416  21.4699546  21.2891837
   6.2200008  22.5045582  20.3888974   5.7309187  21.2146075  18.0879133
   6.2596954  20.7038530  17.4749295   5.9937407  20.8988605  18.9524666
   4.4847421  12.9938008  33.2101951   3.8088058  12.8932137  33.8804326
   5.3075055  12.8377221  33.6737948   3.2270204  24.3004935  27.4459567
   3.7788512  24.4636557  28.2108652   3.5676397  24.8909373  26.7739592
   8.0781078  19.1266193  33.3008221   8.6220982  19.7396151  32.8063176
   7.4967923  19.6845771  33.8175234   6.3638591  22.2486911  24.4323249
   6.2389730  21.4476651  23.9234195   7.0217682  22.7433104  23.9437219
   8.4273499  20.0495931  26.0602799   7.4803835  19.9301282  25.9881126
   8.7756272  19.1618429  26.1429061   5.4319933  19.8448647  22.2607151
   5.2844895  18.9165354  22.4414722   6.2573426  19.8668738  21.7764227
   9.0354054  20.6677206  23.3472024   9.9600602  20.4620067  23.2096475
   8.8669358  20.4193607  24.2561366   8.8249371  21.1862873  18.7034116
   8.9986248  20.6209296  17.9507968   9.3178262  21.9863768  18.5213606
  14.6788762  13.9499296  20.3224415  15.1219908  13.2006621  19.9243539
  13.8015272  13.9409432  19.9398147   9.8124543  20.5029638  15.8031014
  10.5075448  21.1236330  16.0218329  10.1547693  19.6524989  16.0783392
  11.7115966  17.9529343  17.3318345  12.2367290  18.2916616  16.6067665
  11.6238319  17.0176358  17.1481479   3.3736015  21.8663417  29.4608221
   3.6823141  21.6212564  30.3330921   4.1711497  22.0710055  28.9727092
   3.3956627  24.0201326  21.6913598   2.9561617  23.5277705  22.3846455
   4.1464744  23.4774294  21.4505673  11.4009872  18.5862247  32.6369543
  10.6105416  18.5686386  32.0974042  11.1643227  19.1250540  33.3918579
  11.5207747  15.4354713  29.9502271  11.5705752  15.2704721  30.8917794
  11.4121671  14.5681972  29.5600152   8.8111510  11.4185641  31.2661578
   9.7121373  11.2792106  30.9745576   8.8859484  11.5840096  32.2059755
  13.0225944  17.8551655  30.1944293  12.7310753  18.2181635  31.0307754
  12.4098076  17.1418663  30.0157625  14.2221627  15.4204534  22.7146863
  15.0568518  15.8594338  22.8784423  14.3580755  14.9443188  21.8955109
  11.2713132  12.9784269  28.6624351  11.7467254  13.1711916  27.8543202
  10.3478698  13.0343455  28.4167734   9.9714801   9.8550029  26.8952656
  10.9232224   9.9548127  26.9164880   9.8018252   9.0628298  27.4050741
   7.9929181   6.9405613  27.0812057   7.3979113   7.2210625  26.3858546
   7.7078878   7.4299513  27.8528798   7.1236671  20.8928539  15.8414690
   8.0567345  20.8274101  16.0447565   7.0359884  21.7284806  15.3829223
   9.7524688  20.2094410  12.8018637   9.6738320  19.8754273  13.6954395
  10.5734355  20.7016178  12.8010110  12.4502879  13.0756149  26.0094956
  12.4179199  12.1372150  26.1954640  13.0603503  13.1540186  25.2760781
  12.5997368   9.8667192  26.0553239  12.0836416   9.0825649  25.8683168
  13.4837316   9.5385909  26.2199759  18.2679429  14.1372156  25.1500993
  18.9982818  13.8757444  25.7108696  17.6586375  13.4000878  25.1903061
  16.3494726  12.2780018  25.7475444  15.6227890  12.1435983  25.1391936
  15.9342013  12.5856847  26.5532162   4.1724903  15.9969948  33.5122817
   5.0927912  16.1748547  33.7062864   4.1374486  15.0525993  33.3602516
   1.9046111  12.9101327  34.3613409   1.4213192  13.7101688  34.5677298
   1.9907050  12.9209272  33.4080853  11.5299963   7.7864251  22.0434935
  12.3060353   8.2760704  22.3159552  10.8048097   8.2122306  22.5006804
  13.9672521   8.4991871  23.1008876  14.5617012   8.2587607  22.3902184
  14.0399105   7.7799001  23.7282412   8.1526450  13.2772266  18.5430886
   8.0961652  13.7340818  17.7038518   8.7054793  12.5162951  18.3653729
  11.9631256   9.0661998  19.3681005  11.7068190   8.6658634  20.1989213
  11.3384124   9.7805792  19.2431145  16.2743594  11.8058072  21.8752297
  15.7143152  11.8751261  22.6483859  15.6687097  11.6299056  21.1551793
   9.2315337  17.9644934  14.4727076  10.0660941  17.5326133  14.2904551
   9.0699680  17.7926948  15.4003970   6.2007137  16.7725959  35.1636978
   7.0698296  16.9466612  34.8023613   5.7213888  17.5920376  35.0412707
   2.1246919  22.6454047  23.5036490   1.1742550  22.6455909  23.3900862
   2.4279405  21.8986782  22.9872525  14.6689319  28.4342014  24.5043777
  14.3307830  28.3183078  23.6164312  15.5379087  28.0333179  24.4844783
  10.5276134  30.2877490  20.4940668   9.9640999  30.1967427  19.7256956
  10.4128529  29.4677394  20.9743161   8.0740566  31.7828682  23.3324889
   8.8661858  31.4419506  22.9171188   8.3137216  31.8923657  24.2527042
  16.1075693  33.9548458  15.8055133  15.4563673  34.5402538  15.4189147
  16.9020056  34.4854653  15.8650171  10.0331320  31.0437595  16.2042267
  10.8062196  30.4966582  16.0655143  10.3856719  31.9081844  16.4156729
  11.8716363  32.3713977  29.4109167  11.5806229  33.2759608  29.2955833
  12.5073347  32.4130505  30.1253236  12.7972570  29.7490826  26.0010526
  13.3936142  29.5246848  25.2867489  12.8547541  29.0075571  26.6035974
  12.3697598  27.2030261  13.8360717  12.6223119  26.6811782  13.0744180
  11.4322157  27.0396406  13.9387401  17.4140881  26.2066039  21.6435461
  18.2003970  25.7885462  21.2925878  17.6779585  27.1112131  21.8117109
  17.5850958  31.6438890  16.3424117  16.9496791  31.7173516  17.0545022
  17.2548365  32.2332488  15.6643197  12.0893887  29.1058367  16.0385092
  11.9730145  28.4303270  16.7066177  12.1996147  28.6190741  15.2217245
  14.4325428  28.5668514  19.7431782  14.0683635  28.0399135  20.4544703
  15.2892544  28.1766983  19.5698267  14.0730915  23.5958414  14.7393130
  14.2405317  24.4638650  15.1063601  13.8828084  23.7585695  13.8154419
  10.2818729  28.5089189  22.4395665   9.3569226  28.3765404  22.6473357
  10.5303143  29.2883409  22.9365607  14.0520136  26.0516071  15.7239797
  13.9319761  26.4973122  16.5625277  13.3572724  26.4001389  15.1653335
   7.6427540  28.1522463  23.2739454   7.7719922  28.4056942  24.1878866
   6.9624992  28.7450171  22.9544109  11.8127028  38.8219713  19.3729928
  11.7351057  39.7727538  19.4518409  11.2088671  38.4765585  20.0304854
  14.3044257  25.9947578  32.0291295  13.5277591  26.5541499  32.0194160
  14.9434820  26.4804361  32.5506165  19.7505202  26.5237544  16.5520131
  20.6623058  26.7564931  16.3767828  19.2414849  27.1074589  15.9895210
  12.5590630  28.8033032  31.5909262  13.3005314  29.3418076  31.3144086
  11.8527615  29.4299320  31.7480814  14.3877039  25.8834779  27.5614980
  15.2338235  26.3074193  27.7049629  14.3275677  25.2268403  28.2553544
  13.9102746  31.2437771  21.2083797  14.3741091  31.5225474  20.4188420
  13.6459544  30.3421215  21.0256888  10.8026827  30.7909252  24.1463561
  11.3728184  31.2196521  23.5081045  11.3934939  30.5091837  24.8447746
  12.8471632  27.3660923  18.0173363  13.5495675  27.8181967  18.4847289
  12.5152260  26.7244742  18.6453256  11.2951993  25.9572680  32.3924572
  10.6650654  26.6388961  32.6259969  11.1888081  25.8455762  31.4477710
   6.5896966  25.6244476  23.3190496   5.7996020  25.8802004  22.8430607
   7.0808213  26.4392814  23.4242537   8.5411711  25.9889055  20.2773973
   7.7442875  26.1007749  20.7957469   8.3137303  26.3275707  19.4114863
   4.8734669  25.8774966  25.7505487   5.1242707  26.7621976  26.0163063
   5.4094217  25.6979568  24.9780579  14.0865397  34.1801866  18.0935468
  13.9511071  35.0253402  18.5220316  14.6275209  34.3821144  17.3301402
  10.5732736  20.2593446  34.7549823  10.1799682  19.7059644  35.4297467
  11.3898877  20.5704024  35.1456341   7.5394794  31.6977304  18.6663393
   8.0519315  32.4920554  18.8168958   8.1917507  31.0003594  18.5996994
   9.3489679  34.8143060  20.7486146   9.5256307  35.7361025  20.5607130
  10.1446512  34.5001479  21.1780526  13.4900697  21.6751325  32.3470080
  14.2310411  22.2758478  32.2674542  13.7218620  20.9328963  31.7888122
   8.6342035  26.8607692  30.6248309   8.5195550  25.9592949  30.9255408
   7.7786553  27.1071389  30.2733126  10.4720994  36.3321234  26.7496488
  11.0228419  36.2038297  25.9773482   9.6332470  36.6316123  26.3991381
  17.4357860  17.7032428  26.6234361  17.0922130  18.5934069  26.5473472
  17.8036823  17.5134085  25.7603946   5.5043711  30.0265958  19.4422963
   6.3418933  30.4362967  19.2256671   5.6821978  29.0865400  19.4123157
  17.4008143  27.6941039  15.1306796  16.8854766  28.4645644  15.3695184
  17.1285451  27.0206175  15.7539858  14.9855254  22.5390740  20.1892035
  14.1296850  22.1497590  20.0097674  15.3982206  22.6182700  19.3291820
  12.7597286  20.1575813  23.5949776  13.6250283  19.9618621  23.2355666
  12.8274795  19.9286164  24.5219133  22.3742417  30.4473394  17.0659970
  21.5971860  30.1084553  16.6215132  23.0533898  30.4526017  16.3914935
  17.1894446  25.5668131  16.9566578  16.8844582  25.8814280  17.8076721
  18.1424888  25.6449551  16.9993911  15.6340878  31.7258354  18.6059532
  15.1062239  30.9911114  18.2932769  15.1328381  32.5033031  18.3599500
  10.3659605  22.3878021  20.9666143  10.9403357  22.1653202  20.2339336
  10.9530588  22.4566715  21.7194744  10.6929193  24.4182482  14.9862028
   9.8566505  24.7557168  15.3071303  10.5533962  24.2831461  14.0489165
  12.6682273  19.2619269  19.6941213  12.0146686  18.9468287  19.0697827
  12.6262747  18.6395010  20.4201035  13.7793478  29.5438565  11.6094505
  12.8720540  29.3127818  11.8085654  14.2764510  28.7476184  11.7968486
  16.6861557  38.2536072  14.5291191  16.0123256  38.5567769  15.1376149
  17.0727379  39.0565152  14.1796648  15.9020014  25.7501203  24.0188860
  14.9842575  25.9716150  23.8610548  16.3180157  25.8247514  23.1600568
  16.6855061  27.1492619  19.1491540  17.4326880  27.6614016  18.8398662
  16.9546651  26.8276671  20.0095934  14.9581711  29.6451159  16.1318495
  14.0492931  29.3610192  16.2290964  14.9876795  30.0650238  15.2721802
  20.1900979  33.2557749  19.9009662  19.7363306  32.4148659  19.9574853
  19.5594946  33.8919147  20.2384442  19.1333898  24.1849735  21.1310330
  18.3956655  23.6727121  21.4620572  19.3860672  23.7450117  20.3193607
  18.6333918  35.0934246  20.8359480  18.9256893  35.6539303  20.1171846
  19.1432539  35.3862807  21.5912640  19.2345526  16.9625987  21.7252099
  19.5404403  16.1023350  21.4378014  19.9598131  17.5543607  21.5251093
   5.5269882  27.3656674  20.1133697   5.3294282  26.7726034  19.3884763
   4.9716546  27.0608884  20.8309636  13.5066606  27.2579780  22.2328290
  13.5615215  26.3053616  22.1570767  12.6957808  27.4139219  22.7169588
  14.6557799  31.1859903  13.4706573  14.2177229  30.4695762  13.0112211
  15.3968240  31.4136018  12.9091665  11.4458965  25.8756840  19.9918669
  10.6326831  26.1751010  20.3983861  11.9417960  25.4812529  20.7093151
  13.5967543  35.8714597  21.9252934  13.5543722  36.0975443  20.9961466
  14.5130242  35.6377971  22.0738735  17.0433177  26.3398664  28.8233563
  17.3982565  26.5670137  29.6828029  17.6905308  26.6717041  28.2010818
  10.9373040  23.4475195  25.6079904  11.5772420  23.3063954  24.9102867
  10.1050571  23.1609709  25.2318506  11.7133344  32.7477626  21.7214896
  12.5073943  32.2527946  21.5197471  11.0025037  32.2195489  21.3582602
   8.0216108  26.8920707  17.7974649   7.0913696  26.8305163  18.0144611
   8.1173580  26.3696660  17.0011290   7.9401657  23.4175520  20.3852891
   8.2008474  24.3320854  20.2762051   8.7618829  22.9499963  20.5349503
   9.4126582  24.8313277  27.5551715  10.0849635  24.6230640  26.9064364
   8.5856368  24.6335363  27.1156948  14.8852772  38.4215744  16.7438270
  15.0604528  37.9503787  17.5583893  14.1985560  39.0481510  16.9719531
   9.8154079  28.1055880  28.3154152   9.6773877  27.3736119  28.9165691
  10.7259003  28.0164781  28.0338340  18.7769027  30.0444285  13.0638631
  18.1598198  29.3191113  12.9671684  18.3085515  30.8053645  12.7205705
  12.4436380  27.8175840  27.8037832  13.1535998  27.1769032  27.7624450
  12.4005688  28.0688735  28.7264013  11.1565314  24.8041058  29.6233471
  10.6202671  24.3531796  30.2755068  10.5682022  24.9386966  28.8803936
   9.4513857  41.5705107  23.5178130   9.6910456  42.2023631  24.1957149
   8.6083054  41.2193147  23.8043489  10.5667573  24.2629709  12.1859935
   9.6897039  24.1418510  11.8222182  11.0425326  23.4715787  11.9338824
   2.0869713  29.0506869  22.2801442   2.7740753  28.7368599  21.6922458
   1.9317842  29.9548233  22.0068694   6.8904435  23.9397065  26.7086466
   6.8062624  23.3322735  25.9736876   6.0687142  24.4306084  26.7095962
  13.9641719  37.3784229  25.9219634  13.8911891  38.1839201  26.4338939
  13.5219112  37.5776195  25.0967656  13.7531499  36.6155999  19.4322456
  12.9699021  37.1577680  19.5260680  14.4524244  37.1329979  19.8316697
  17.0628149  22.4250629  22.0756661  17.5596849  21.6720591  21.7557731
  16.2915130  22.4614946  21.5099870  18.1457930  31.1822316  19.6495084
  17.2114208  31.3023779  19.4799789  18.3234598  30.2794783  19.3855094
  13.6463118  24.5668012  21.8028346  13.2760905  24.0139052  22.4909251
  14.1422210  23.9626145  21.2503346  11.4752316  35.0265507  28.8983364
  12.1761776  35.6601990  29.0512758  11.0047431  35.3680238  28.1379003
  19.6006712  33.3683457  17.1831271  19.8766556  33.2540051  18.0925145
  18.7311211  32.9700942  17.1443444  16.2360776  37.6169808  20.8264084
  16.4183171  36.7991463  21.2891837  17.0593762  37.8337500  20.3888974
  16.5702942  36.5437993  18.0879133  17.0990708  36.0330447  17.4749295
  16.8331161  36.2280523  18.9524666   7.0720034  34.5601862  25.8314466
   7.6573471  33.8145550  25.9642370   6.8744873  34.8705819  26.7151130
   9.9258690  37.5953109  20.8476909   9.2569065  38.0799237  20.3640949
   9.7871559  37.8422330  21.7620287   1.6637689  27.1307462  24.5518909
   1.7021789  26.5971053  25.3456028   1.1577982  26.6042668  23.9329887
  14.0663958  39.6296853  27.4459567  14.6182266  39.7928474  28.2108652
  14.4070152  40.2201291  26.7739592   9.0428451  21.9772003  28.0481452
   9.1069778  22.8386834  27.6358849   8.9795572  21.3646004  27.3153810
   8.5180724  24.0495135  31.6954486   9.1452763  23.6672213  32.3092010
   7.6608643  23.8309337  32.0610178   5.2946267  25.8571564  17.6272841
   5.5899708  24.9482243  17.5739895   4.3934302  25.8359304  17.3053843
   8.8240514  23.9327561  23.6100389   8.1027099  24.5463529  23.4707863
   9.6133769  24.4685326  23.5317035  11.6266827  21.2681987  29.8841041
  12.1501229  21.5144284  30.6467350  11.4079160  22.1002022  29.4644178
   7.0234108  23.5385662  17.7512166   6.6946814  22.6583041  17.5687272
   7.3773479  23.4833331  18.6388555  16.2713687  35.1740565  22.2607151
  16.1238650  34.2457272  22.4414722  17.0967181  35.1960655  21.7764227
  10.1375931  23.8258632  18.1187644  10.4772004  24.3544553  17.3966252
  10.5848052  24.1639038  18.8946210  12.8319372  22.2095682  27.5690712
  12.4916193  21.4103496  27.9711392  12.1258379  22.5097393  26.9967545
  13.4835844  19.2944995  26.0218035  14.3061913  18.8205473  25.8996925
  13.7273908  20.0735479  26.5216721  12.1244079  22.3233253  16.3180936
  12.8452441  22.7014506  15.8144653  11.5009383  23.0422130  16.4215914
  16.2675201  23.0278402  17.2539269  16.4838816  23.9103040  16.9528097
  15.7869269  22.6364616  16.5244911  11.0074423  25.9864116  23.8310013
  10.8619004  26.3004419  24.7234295  10.5299626  26.6049016  23.2780912
  12.8670806  22.9766664  23.8790903  12.8532374  22.0807757  23.5423201
  13.5843234  22.9837327  24.5129189  14.7196936  23.4104004  25.9244030
  14.4614714  24.3321074  25.9228361  14.1881977  23.0134438  26.6144494
  19.6643125  36.5154791  18.7034116  19.8380003  35.9501213  17.9507968
  20.1572016  37.3155686  18.5213606   5.4820085  28.5269460  26.7697675
   4.9373553  29.3029268  26.9017949   6.3599435  28.8740264  26.6116796
  12.2707702  21.8581044  19.1478473  12.3923613  20.9297690  19.3469361
  11.9809744  21.8719730  18.2356788  15.1398892  19.5435954  22.2845193
  15.1620589  19.6075287  21.3297172  15.5566951  18.7040463  22.4785699
  20.6518298  35.8321555  15.8031014  21.3469202  36.4528248  16.0218329
  20.9941448  34.9816906  16.0783392   6.2686107  27.6539356  29.6627831
   5.5267843  27.8021992  30.2492462   5.9478851  27.9147622  28.7994581
  22.5509721  33.2821261  17.3318345  23.0761045  33.6208534  16.6067665
  22.4632073  32.3468276  17.1481479  14.2129769  37.1955334  29.4608221
  14.5216896  36.9504481  30.3330921  15.0105252  37.4001973  28.9727092
  14.2350382  39.3493244  21.6913598  13.7955372  38.8569623  22.3846455
  14.9858498  38.8066212  21.4505673   6.7142721  35.5404785  21.6938226
   7.5400740  35.2408557  21.3136870   6.3636773  34.7712407  22.1428015
  11.6824254  34.8931253  23.7635900  11.0604263  34.2301958  23.4638127
  12.3529121  34.9192385  23.0809547   4.9151326  33.4591111  22.6527160
   4.0783234  33.0313286  22.4711161   4.8874971  33.6523555  23.5897951
  11.7548781  23.3713041  33.3568406  11.8036937  24.2475164  32.9746175
  12.2971295  22.8290434  32.7840049  11.2437761  33.4435176  17.2394360
  11.3925881  34.1270641  16.5861033  12.0504204  33.4240267  17.7543816
  13.9848070  24.1244414  30.1114764  13.1151379  24.4177980  29.8397353
  14.2207550  24.7084859  30.8322028   8.9990394  29.4700354  18.2455429
   8.7536436  28.5662684  18.4435639   9.1686308  29.4717505  17.3034907
   8.2686041  25.2028712  15.7441591   7.5755286  25.2773067  15.0881626
   8.0237793  24.4389055  16.2663107  16.9399698  16.7624313  23.1481081
  17.2201451  16.0947502  23.7741508  17.7250305  16.9553409  22.6355745
  14.7433166  35.9383307  14.7106108  14.1707133  36.5573494  14.2576579
  15.3165960  36.4882669  15.2446030  17.9630426  36.2220457  15.8414690
  18.8961099  36.1566019  16.0447565  17.8753639  37.0576724  15.3829223
  20.5918443  35.5386327  12.8018637  20.5132074  35.2046191  13.6954395
  21.4128109  36.0308095  12.8010110  15.1279965  27.2744120  12.0522160
  16.0739069  27.1450328  12.1210578  14.7494210  26.5358782  12.5291588
  21.1001849  18.9400126  22.0149052  20.9026670  18.6315214  22.8992384
  21.7101555  19.6661765  22.1446982  13.3122882  25.1994096  11.9877045
  12.4054337  24.9027209  12.0639759  13.5898863  24.9023914  11.1211332
   4.2300822  26.5200459  22.4376092   3.9103606  25.6665768  22.1450466
   3.6834250  26.7349038  23.1934059   8.0080730  29.2362900  26.1545598
   8.2266739  30.1680008  26.1733632   8.4206504  28.8770875  26.9400402
  14.9284947  19.7430986  18.1421287  14.1185676  19.3978071  18.5176533
  15.6169364  19.4338530  18.7308898  16.8575496  18.8209033  19.7645583
  17.4106534  19.2404486  20.4235606  17.0945582  17.8944781  19.8068539
  12.8808595  24.8096106  35.5448347  12.7805322  25.7590463  35.4760438
  12.6630137  24.4814345  34.6724417  12.0821666  22.0581031  12.1289024
  12.9440830  22.3835930  12.3884842  12.2672011  21.2712527  11.6162090
   4.0989082  30.1403371  24.4069213   3.4052554  29.7257324  23.8939168
   4.8462073  30.1823907  23.8102632  20.2354303  20.9309558  19.2724247
  19.6552972  21.5894362  18.8902300  19.9690236  20.1086902  18.8611665
  18.6857869  20.3314615  21.4745568  19.1857648  20.4431150  20.6659887
  19.3293477  20.0275668  22.1146376  12.7439865  28.2393245  34.3613409
  12.2606947  29.0393605  34.5677298  12.8300804  28.2501190  33.4080853
   6.0125825  30.0721625  22.2835228   5.9896513  30.1709312  21.3317111
   6.3226461  30.9186776  22.6052394   8.6713203  32.1297780  26.3981843
   9.6256456  32.0981722  26.3311774   8.4725726  31.6688404  27.2132068
   9.2612585  30.6998896  28.9652640  10.0805474  31.1942975  28.9887478
   9.5349392  29.7830864  28.9370208  19.0179181  23.0909648  18.3280596
  18.1305036  23.3759299  18.1100791  19.4333170  22.9303412  17.4807873
   7.0263431  37.6717399  23.4152040   6.8917899  36.9117800  22.8490038
   6.6095494  38.3958299  22.9480829  18.1622394  32.8554323  12.4228616
  18.8658244  33.0604325  13.0386271  17.4385043  33.4231085  12.6877699
  18.9920205  28.6064184  18.5430886  18.9355406  29.0632736  17.7038518
  19.5448547  27.8454869  18.3653729  10.1832557  38.5686716  23.6270483
  10.0664941  39.5132149  23.5249173   9.3625003  38.2660278  24.0156282
  20.0709092  33.2936852  14.4727076  20.9054696  32.8618050  14.2904551
  19.9093435  33.1218866  15.4003970  19.7254984  29.7968965  15.8383415
  19.6703788  29.6313237  14.8971859  19.1001039  30.5044998  15.9945605
   4.5147499  25.0337030  29.6644837   5.1606363  24.5235984  30.1532062
   4.3064650  25.7705711  30.2388263  13.0351109  19.2977074  15.4168733
  13.0229779  20.2418914  15.5737004  13.9274531  19.1147220  15.1228195
  11.2087071  39.2214978  26.8426412  12.1114318  39.2538588  27.1592906
  10.9824441  38.2915429  26.8572747  12.9640673  37.9745965  23.5036490
  12.0136304  37.9747826  23.3900862  13.2673160  37.2278699  22.9872525
  16.8503229  15.8919851  19.6714670  16.0835625  15.3378338  19.8171353
  17.2613934  15.9641720  20.5328822   8.8544990  22.1804647  33.7619852
   9.7176451  21.8241452  33.9723176   8.2810401  21.8418542  34.4495256
  28.6993367  43.8106503  24.5682253  29.3371777  43.6913250  23.8645593
  28.5814210  44.7587347  24.6270205  25.5083073  43.7633931  24.5043777
  25.1701585  43.6474996  23.6164312  26.3772841  43.3625096  24.4844783
  21.3669889  45.6169408  20.4940668  20.8034754  45.5259345  19.7256956
  21.2522284  44.7969312  20.9743161  18.9134321  47.1120599  23.3324889
  19.7055613  46.7711424  22.9171188  19.1530971  47.2215574  24.2527042
  26.9469448  49.2840375  15.8055133  26.2957427  49.8694456  15.4189147
  27.7413810  49.8146570  15.8650171  20.8725075  46.3729512  16.2042267
  21.6455951  45.8258500  16.0655143  21.2250474  47.2373762  16.4156729
  22.7110117  47.7005895  29.4109167  22.4199983  48.6051526  29.2955833
  23.3467102  47.7422422  30.1253236  23.6366324  45.0782743  26.0010526
  24.2329896  44.8538766  25.2867489  23.6941296  44.3367489  26.6035974
  23.2091353  42.5322179  13.8360717  23.4616873  42.0103700  13.0744180
  22.2715912  42.3688324  13.9387401  28.2534635  41.5357957  21.6435461
  29.0397725  41.1177380  21.2925878  28.5173340  42.4404049  21.8117109
  28.4244713  46.9730807  16.3424117  27.7890546  47.0465434  17.0545022
  28.0942119  47.5624406  15.6643197  33.6543062  41.4733190  22.5468439
  34.3868234  40.9032407  22.7806269  32.8982418  41.0854791  22.9874945
  22.9287641  44.4350285  16.0385092  22.8123899  43.7595188  16.7066177
  23.0389901  43.9482658  15.2217245  25.2719182  43.8960432  19.7431782
  24.9077389  43.3691053  20.4544703  26.1286298  43.5058901  19.5698267
  24.9124669  38.9250331  14.7393130  25.0799072  39.7930568  15.1063601
  24.7221838  39.0877613  13.8154419  21.1212484  43.8381107  22.4395665
  20.1962980  43.7057321  22.6473357  21.3696897  44.6175326  22.9365607
  31.0697146  39.9049850  24.0856398  30.1614023  39.8365259  23.7915159
  31.0184742  40.3821795  24.9138223  24.8913890  41.3807989  15.7239797
  24.7713515  41.8265040  16.5625277  24.1966478  41.7293307  15.1653335
  18.4821295  43.4814381  23.2739454  18.6113676  43.7348860  24.1878866
  17.8018746  44.0742089  22.9544109  22.6520782  54.1511631  19.3729928
  22.5744812  55.1019456  19.4518409  22.0482426  53.8057503  20.0304854
  30.5898956  41.8529462  16.5520131  31.5016812  42.0856849  16.3767828
  30.0808603  42.4366506  15.9895210  23.3984384  44.1324949  31.5909262
  24.1399069  44.6709993  31.3144086  22.6921370  44.7591238  31.7480814
  33.0757770  47.7709718  21.2978076  32.3908809  48.1508620  20.7475109
  33.1601620  48.3805045  22.0310024  27.9334931  38.0287498  24.8009992
  27.0719410  38.3268752  25.0926729  27.9597366  38.2457897  23.8691024
  24.7496500  46.5729689  21.2083797  25.2134846  46.8517392  20.4188420
  24.4853298  45.6713133  21.0256888  21.6420581  46.1201170  24.1463561
  22.2121939  46.5488438  23.5081045  22.2328693  45.8383755  24.8447746
  23.6865386  42.6952841  18.0173363  24.3889430  43.1473885  18.4847289
  23.3546015  42.0536660  18.6453256  17.4290720  40.9536394  23.3190496
  16.6389774  41.2093922  22.8430607  17.9201968  41.7684731  23.4242537
  19.3805466  41.3180973  20.2773973  18.5836629  41.4299667  20.7957469
  19.1531058  41.6567625  19.4114863  15.7128423  41.2066884  25.7505487
  15.9636462  42.0913894  26.0163063  16.2487972  41.0271486  24.9780579
  24.9259151  49.5093784  18.0935468  24.7904826  50.3545319  18.5220316
  25.4668964  49.7113061  17.3301402  18.3788548  47.0269222  18.6663393
  18.8913069  47.8212472  18.8168958  19.0311261  46.3295512  18.5996994
  20.1883433  50.1434978  20.7486146  20.3650061  51.0652943  20.5607130
  20.9840267  49.8293397  21.1780526  19.4735790  42.1899610  30.6248309
  19.3589305  41.2884867  30.9255408  18.6180307  42.4363307  30.2733126
  21.3114749  51.6613152  26.7496488  21.8622174  51.5330215  25.9773482
  20.4726225  51.9608041  26.3991381  16.3437465  45.3557876  19.4422963
  17.1812687  45.7654884  19.2256671  16.5215733  44.4157318  19.4123157
  28.2401897  43.0232957  15.1306796  27.7248521  43.7937561  15.3695184
  27.9679206  42.3498093  15.7539858  25.8249008  37.8682657  20.1892035
  24.9690605  37.4789508  20.0097674  26.2375960  37.9474618  19.3291820
  33.2136171  45.7765311  17.0659970  32.4365614  45.4376471  16.6215132
  33.8927652  45.7817934  16.3914935  28.0288201  40.8960049  16.9566578
  27.7238336  41.2106198  17.8076721  28.9818643  40.9741469  16.9993911
  26.4734632  47.0550272  18.6059532  25.9455994  46.3203032  18.2932769
  25.9722135  47.8324948  18.3599500  21.2053360  37.7169938  20.9666143
  21.7797112  37.4945120  20.2339336  21.7924342  37.7858633  21.7194744
  30.2632937  43.6043665  21.7730520  30.7764819  44.2373657  22.2752229
  30.9134161  43.0044861  21.4073880  21.5322947  39.7474399  14.9862028
  20.6960259  40.0849086  15.3071303  21.3927717  39.6123379  14.0489165
  24.6187233  44.8730482  11.6094505  23.7114294  44.6419736  11.8085654
  25.1158265  44.0768101  11.7968486  27.5255311  53.5827989  14.5291191
  26.8517010  53.8859686  15.1376149  27.9121133  54.3857070  14.1796648
  26.7413768  41.0793121  24.0188860  25.8236329  41.3008068  23.8610548
  27.1573912  41.1539431  23.1600568  27.5248816  42.4784536  19.1491540
  28.2720635  42.9905934  18.8398662  27.7940405  42.1568589  20.0095934
  25.7975466  44.9743077  16.1318495  24.8886685  44.6902110  16.2290964
  25.8270550  45.3942156  15.2721802  31.0294733  48.5849667  19.9009662
  30.5757061  47.7440576  19.9574853  30.3988700  49.2211065  20.2384442
  29.9727653  39.5141653  21.1310330  29.2350410  39.0019039  21.4620572
  30.2254426  39.0742034  20.3193607  29.4727673  50.4226163  20.8359480
  29.7650647  50.9831220  20.1171846  29.9826293  50.7154724  21.5912640
  16.3663636  42.6948591  20.1133697  16.1688036  42.1017952  19.3884763
  15.8110300  42.3900801  20.8309636  24.3460360  42.5871698  22.2328290
  24.4008970  41.6345534  22.1570767  23.5351562  42.7431137  22.7169588
  25.4951554  46.5151821  13.4706573  25.0570984  45.7987680  13.0112211
  26.2361995  46.7427936  12.9091665  22.2852720  41.2048757  19.9918669
  21.4720585  41.5042928  20.3983861  22.7811714  40.8104446  20.7093151
  24.4361298  51.2006514  21.9252934  24.3937477  51.4267361  20.9961466
  25.3523997  50.9669889  22.0738735  33.6124669  44.7909018  19.5282892
  33.4742567  44.9810614  18.6004081  33.2560887  45.5528401  19.9850943
  22.5527099  48.0769543  21.7214896  23.3467697  47.5819864  21.5197471
  21.8418791  47.5487407  21.3582602  18.8609862  42.2212625  17.7974649
  17.9307450  42.1597081  18.0144611  18.9567334  41.6988578  17.0011290
  18.7795411  38.7467438  20.3852891  19.0402228  39.6612771  20.2762051
  19.6012583  38.2791881  20.5349503  25.7246527  53.7507662  16.7438270
  25.8998282  53.2795705  17.5583893  25.0379315  54.3773428  16.9719531
  20.6547834  43.4347798  28.3154152  20.5167632  42.7028037  28.9165691
  21.5652757  43.3456698  28.0338340  29.6162781  45.3736202  13.0638631
  28.9991952  44.6483031  12.9671684  29.1479270  46.1345563  12.7205705
  23.2830134  43.1467757  27.8037832  23.9929753  42.5060950  27.7624450
  23.2399443  43.3980652  28.7264013  20.2907612  56.8997025  23.5178130
  20.5304210  57.5315549  24.1957149  19.4476808  56.5485065  23.8043489
  21.4061327  39.5921627  12.1859935  20.5290794  39.4710428  11.8222182
  21.8819080  38.8007705  11.9338824  12.9263467  44.3798786  22.2801442
  13.6134507  44.0660516  21.6922458  12.7711596  45.2840151  22.0068694
  24.5925253  51.9447917  19.4322456  23.8092775  52.4869597  19.5260680
  25.2917999  52.4621897  19.8316697  27.9021903  37.7542547  22.0756661
  28.3990603  37.0012509  21.7557731  27.1308885  37.7906863  21.5099870
  28.9851684  46.5114234  19.6495084  28.0507963  46.6315696  19.4799789
  29.1628353  45.6086701  19.3855094  24.4856872  39.8959930  21.8028346
  24.1154660  39.3430970  22.4909251  24.9815965  39.2918063  21.2503346
  32.3724235  42.3531553  20.1845119  32.8384688  43.1859545  20.1105421
  32.8231736  41.8876535  20.8890377  22.3146071  50.3557425  28.8983364
  23.0155530  50.9893908  29.0512758  21.8441186  50.6972156  28.1379003
  30.4400467  48.6975374  17.1831271  30.7160311  48.5831969  18.0925145
  29.5704965  48.2992859  17.1443444  27.0754531  52.9461725  20.8264084
  27.2576925  52.1283381  21.2891837  27.8987517  53.1629417  20.3888974
  27.4096696  51.8729910  18.0879133  27.9384463  51.3622365  17.4749295
  27.6724916  51.5572441  18.9524666  17.9113789  49.8893780  25.8314466
  18.4967226  49.1437468  25.9642370  17.7138627  50.1997736  26.7151130
  20.7652444  52.9245027  20.8476909  20.0962819  53.4091155  20.3640949
  20.6265314  53.1714247  21.7620287  12.5031444  42.4599380  24.5518909
  12.5415543  41.9262971  25.3456028  11.9971736  41.9334585  23.9329887
  16.1340021  41.1863482  17.6272841  16.4293462  40.2774160  17.5739895
  15.2328057  41.1651221  17.3053843  17.8627863  38.8677580  17.7512166
  17.5340569  37.9874959  17.5687272  18.2167233  38.8125248  18.6388555
  20.9769686  39.1550549  18.1187644  21.3165758  39.6836471  17.3966252
  21.4241806  39.4930956  18.8946210  22.9637833  37.6525171  16.3180936
  23.6846196  38.0306424  15.8144653  22.3403137  38.3714048  16.4215914
  27.1068956  38.3570320  17.2539269  27.3232570  39.2394958  16.9528097
  26.6263023  37.9656533  16.5244911  30.5036880  51.8446709  18.7034116
  30.6773757  51.2793131  17.9507968  30.9965771  52.6447603  18.5213606
  16.3213839  43.8561378  26.7697675  15.7767308  44.6321186  26.9017949
  17.1993189  44.2032182  26.6116796  23.1101456  37.1872961  19.1478473
  23.2317367  36.2589608  19.3469361  22.8203498  37.2011647  18.2356788
  31.4912052  51.1613473  15.8031014  32.1862957  51.7820166  16.0218329
  31.8335202  50.3108824  16.0783392  17.1079861  42.9831274  29.6627831
  16.3661597  43.1313909  30.2492462  16.7872606  43.2439539  28.7994581
  33.3903475  48.6113178  17.3318345  33.9154799  48.9500451  16.6067665
  33.3025828  47.6760194  17.1481479  25.0744136  54.6785162  21.6913598
  24.6349126  54.1861540  22.3846455  25.8252253  54.1358129  21.4505673
  17.5536475  50.8696703  21.6938226  18.3794495  50.5700474  21.3136870
  17.2030527  50.1004325  22.1428015  22.5218008  50.2223171  23.7635900
  21.8998017  49.5593876  23.4638127  23.1922875  50.2484303  23.0809547
  15.7545080  48.7883029  22.6527160  14.9176988  48.3605203  22.4711161
  15.7268725  48.9815472  23.5897951  22.0831515  48.7727094  17.2394360
  22.2319635  49.4562559  16.5861033  22.8897959  48.7532184  17.7543816
  19.8384148  44.7992272  18.2455429  19.5930190  43.8954602  18.4435639
  20.0080063  44.8009422  17.3034907  19.1079796  40.5320629  15.7441591
  18.4149041  40.6064984  15.0881626  18.8631547  39.7680973  16.2663107
  25.5826921  51.2675225  14.7106108  25.0100888  51.8865412  14.2576579
  26.1559714  51.8174586  15.2446030  28.8024180  51.5512375  15.8414690
  29.7354854  51.4857936  16.0447565  28.7147393  52.3868642  15.3829223
  31.4312197  50.8678245  12.8018637  31.3525829  50.5338109  13.6954395
  32.2521864  51.3600013  12.8010110  25.9673719  42.6036037  12.0522160
  26.9132824  42.4742245  12.1210578  25.5887964  41.8650699  12.5291588
  24.1516636  40.5286014  11.9877045  23.2448092  40.2319126  12.0639759
  24.4292617  40.2315832  11.1211332  15.0694577  41.8492377  22.4376092
  14.7497361  40.9957685  22.1450466  14.5228005  42.0640955  23.1934059
  18.8474484  44.5654818  26.1545598  19.0660494  45.4971926  26.1733632
  19.2600258  44.2062793  26.9400402  25.7678702  35.0722903  18.1421287
  24.9579430  34.7269988  18.5176533  26.4563119  34.7630447  18.7308898
  22.9215421  37.3872949  12.1289024  23.7834585  37.7127847  12.3884842
  23.1065765  36.6004445  11.6162090  14.9382837  45.4695289  24.4069213
  14.2446308  45.0549241  23.8939168  15.6855828  45.5115825  23.8102632
  16.8519579  45.4013542  22.2835228  16.8290267  45.5001230  21.3317111
  17.1620216  46.2478693  22.6052394  19.5106957  47.4589697  26.3981843
  20.4650211  47.4273640  26.3311774  19.3119481  46.9980321  27.2132068
  20.1006339  46.0290814  28.9652640  20.9199228  46.5234892  28.9887478
  20.3743147  45.1122782  28.9370208  29.8572935  38.4201566  18.3280596
  28.9698790  38.7051216  18.1100791  30.2726924  38.2595329  17.4807873
  17.8657186  53.0009317  23.4152040  17.7311654  52.2409718  22.8490038
  17.4489248  53.7250217  22.9480829  29.0016149  48.1846240  12.4228616
  29.7051999  48.3896243  13.0386271  28.2778798  48.7523002  12.6877699
  29.8313959  43.9356102  18.5430886  29.7749161  44.3924653  17.7038518
  30.3842302  43.1746786  18.3653729  33.6418765  39.7245834  19.3681005
  33.3855699  39.3242469  20.1989213  33.0171633  40.4389628  19.2431145
  21.0226312  53.8978634  23.6270483  20.9058696  54.8424066  23.5249173
  20.2018758  53.5952196  24.0156282  30.9102846  48.6228770  14.4727076
  31.7448450  48.1909968  14.2904551  30.7487189  48.4510783  15.4003970
  30.5648738  45.1260883  15.8383415  30.5097542  44.9605154  14.8971859
  29.9394794  45.8336916  15.9945605  15.3541253  40.3628947  29.6644837
  16.0000117  39.8527901  30.1532062  15.1458405  41.0997629  30.2388263
  23.8744864  34.6268992  15.4168733  23.8623534  35.5710832  15.5737004
  24.7668286  34.4439137  15.1228195  22.0480826  54.5506896  26.8426412
  22.9508073  54.5830506  27.1592906  21.8218196  53.6207347  26.8572747
  23.8034428  53.3037882  23.5036490  22.8530059  53.3039744  23.3900862
  24.1066914  52.5570617  22.9872525  32.2063643  60.9461325  20.4940668
  31.6428508  60.8551262  19.7256956  32.0916038  60.1261230  20.9743161
  36.8296611  60.2460701  30.4629983  36.8185251  59.8513499  29.5910486
  36.9917250  59.5126773  31.0563754  29.7528075  62.4412517  23.3324889
  30.5449367  62.1003342  22.9171188  29.9924725  62.5507492  24.2527042
  37.7863202  64.6132293  15.8055133  37.1351182  65.1986373  15.4189147
  38.5807565  65.1438488  15.8650171  31.7118829  61.7021430  16.2042267
  32.4849705  61.1550417  16.0655143  32.0644228  62.5665679  16.4156729
  33.5503872  63.0297812  29.4109167  33.2593738  63.9343443  29.2955833
  34.1860856  63.0714340  30.1253236  34.4760079  60.4074661  26.0010526
  35.0723651  60.1830683  25.2867489  34.5335050  59.6659406  26.6035974
  34.0485107  57.8614096  13.8360717  34.3010628  57.3395618  13.0744180
  33.1109666  57.6980242  13.9387401  39.0928390  56.8649875  21.6435461
  39.8791479  56.4469298  21.2925878  39.3567094  57.7695967  21.8117109
  39.2638467  62.3022725  16.3424117  38.6284300  62.3757351  17.0545022
  38.9335874  62.8916324  15.6643197  44.4936817  56.8025108  22.5468439
  45.2261989  56.2324325  22.7806269  43.7376173  56.4146708  22.9874945
  33.7681396  59.7642202  16.0385092  33.6517654  59.0887106  16.7066177
  33.8783656  59.2774576  15.2217245  36.1112937  59.2252349  19.7431782
  35.7471144  58.6982970  20.4544703  36.9680053  58.8350818  19.5698267
  35.7518424  54.2542249  14.7393130  35.9192826  55.1222485  15.1063601
  35.5615593  54.4169531  13.8154419  38.5093757  62.7159228  26.4058960
  38.2094480  63.6184267  26.2974768  38.1644816  62.4491411  27.2580113
  31.9606238  59.1673025  22.4395665  31.0356735  59.0349239  22.6473357
  32.2090652  59.9467244  22.9365607  35.7307645  56.7099907  15.7239797
  35.6107270  57.1556957  16.5625277  35.0360233  57.0585224  15.1653335
  29.3215049  58.8106298  23.2739454  29.4507431  59.0640777  24.1878866
  28.6412501  59.4034006  22.9544109  33.4914537  69.4803548  19.3729928
  33.4138566  70.4311373  19.4518409  32.8876180  69.1349421  20.0304854
  41.4292711  57.1821380  16.5520131  42.3410567  57.4148766  16.3767828
  40.9202358  57.7658424  15.9895210  34.2378139  59.4616867  31.5909262
  34.9792823  60.0001911  31.3144086  33.5315124  60.0883156  31.7480814
  39.7133478  61.6046008  30.1881424  40.1216834  61.1628418  29.4436056
  38.9910740  61.0298635  30.4415616  40.0362293  62.1647198  23.9433712
  39.4071155  62.3292912  23.2409780  39.6487955  62.5788808  24.7144676
  43.9151525  63.1001636  21.2978076  43.2302563  63.4800537  20.7475109
  43.9995374  63.7096963  22.0310024  35.5890255  61.9021606  21.2083797
  36.0528600  62.1809309  20.4188420  35.3247053  61.0005051  21.0256888
  32.4814336  61.4493088  24.1463561  33.0515693  61.8780356  23.5081045
  33.0722448  61.1675673  24.8447746  34.5259141  58.0244759  18.0173363
  35.2283184  58.4765802  18.4847289  34.1939769  57.3828577  18.6453256
  28.2684475  56.2828311  23.3190496  27.4783529  56.5385840  22.8430607
  28.7595722  57.0976649  23.4242537  42.2848284  63.6233550  26.0695777
  43.1065728  63.2213738  25.7878459  42.2810687  63.5201785  27.0211893
  30.2199220  56.6472891  20.2773973  29.4230384  56.7591585  20.7957469
  29.9924812  56.9859543  19.4114863  36.0504888  63.1717594  28.2256488
  36.1149320  63.6338001  29.0614659  35.3415812  62.5414959  28.3538797
  50.3754277  59.9672299  22.4180748  49.6217986  59.3979697  22.2624753
  50.5101819  59.9334963  23.3651383  35.7652906  64.8385701  18.0935468
  35.6298580  65.6837237  18.5220316  36.3062718  65.0404979  17.3301402
  29.2182303  62.3561139  18.6663393  29.7306824  63.1504390  18.8168958
  29.8705016  61.6587430  18.5996994  31.0277188  65.4726896  20.7486146
  31.2043816  66.3944860  20.5607130  31.8234021  65.1585315  21.1780526
  37.3921382  65.4609268  32.2235810  36.9485236  64.6745646  31.9056714
  38.0538596  65.6488418  31.5579701  32.1508503  66.9905069  26.7496488
  32.7015928  66.8622133  25.9773482  31.3119979  67.2899958  26.3991381
  39.4902620  65.7412068  30.2517211  39.4721095  66.5620949  29.7597480
  40.4122540  65.6166143  30.4767352  35.9475674  63.2556197  31.0940720
  36.4804011  62.4944485  30.8640028  35.4189755  62.9629849  31.8364874
  27.1831220  60.6849794  19.4422963  28.0206442  61.0946802  19.2256671
  27.3609487  59.7449236  19.4123157  39.0795652  58.3524874  15.1306796
  38.5642275  59.1229479  15.3695184  38.8072960  57.6790010  15.7539858
  44.0529926  61.1057229  17.0659970  43.2759369  60.7668388  16.6215132
  44.7321407  61.1109852  16.3914935  38.8681955  56.2251966  16.9566578
  38.5632091  56.5398116  17.8076721  39.8212397  56.3033386  16.9993911
  37.3128387  62.3842190  18.6059532  36.7849748  61.6494949  18.2932769
  36.8115890  63.1616866  18.3599500  42.2921233  60.5791210  23.7226578
  41.6344907  61.2690472  23.8106707  43.0961632  60.9687642  24.0660564
  41.1026692  58.9335583  21.7730520  41.6158573  59.5665575  22.2752229
  41.7527916  58.3336778  21.4073880  32.3716702  55.0766317  14.9862028
  31.5354014  55.4141004  15.3071303  32.2321471  54.9415297  14.0489165
  34.3469782  49.9203105  19.6941213  33.6934195  49.6052122  19.0697827
  34.3050256  49.2978845  20.4201035  35.4580987  60.2022400  11.6094505
  34.5508049  59.9711653  11.8085654  35.9552019  59.4060019  11.7968486
  38.3649066  68.9119907  14.5291191  37.6910765  69.2151604  15.1376149
  38.7514888  69.7148987  14.1796648  38.3642570  57.8076454  19.1491540
  39.1114389  58.3197851  18.8398662  38.6334160  57.4860507  20.0095934
  36.6369220  60.3034995  16.1318495  35.7280440  60.0194028  16.2290964
  36.6664304  60.7234073  15.2721802  41.8688488  63.9141584  19.9009662
  41.4150815  63.0732494  19.9574853  41.2382455  64.5502983  20.2384442
  40.8121407  54.8433570  21.1310330  40.0744164  54.3310957  21.4620572
  41.0648181  54.4033952  20.3193607  40.3121427  65.7518081  20.8359480
  40.6044402  66.3123138  20.1171846  40.8220048  66.0446642  21.5912640
  27.2057391  58.0240509  20.1133697  27.0081791  57.4309870  19.3884763
  26.6504055  57.7192719  20.8309636  36.3345308  61.8443738  13.4706573
  35.8964738  61.1279597  13.0112211  37.0755749  62.0719853  12.9091665
  35.2755052  66.5298432  21.9252934  35.2331231  66.7559278  20.9961466
  36.1917751  66.2961807  22.0738735  44.4518423  60.1200935  19.5282892
  44.3136322  60.3102531  18.6004081  44.0954642  60.8820318  19.9850943
  44.4787803  62.1877462  24.5394163  44.9124309  62.0952752  25.3877217
  45.1919383  62.1634963  23.9014179  33.3920853  63.4061461  21.7214896
  34.1861452  62.9111781  21.5197471  32.6812545  62.8779324  21.3582602
  38.2115698  65.7879557  26.0727264  38.2652720  66.3570493  26.8404980
  37.3430479  65.9581442  25.7081301  29.7003617  57.5504543  17.7974649
  28.7701205  57.4888998  18.0144611  29.7961089  57.0280496  17.0011290
  29.6189166  54.0759356  20.3852891  29.8795983  54.9904689  20.2762051
  30.4406338  53.6083798  20.5349503  40.4018461  62.3807906  32.6467929
  40.2503967  62.1518458  31.7298013  40.3923140  63.3378507  32.6599274
  37.1703797  59.9539819  27.6314196  38.0995857  60.1050978  27.4583163
  36.7494827  60.0423839  26.7762842  35.9692129  63.9790483  25.4012733
  35.8303215  63.6109267  26.2738672  35.1806725  64.4938122  25.2296691
  36.5640281  69.0799580  16.7438270  36.7392037  68.6087623  17.5583893
  35.8773069  69.7065346  16.9719531  37.5197344  63.3572086  22.7901571
  37.1847177  63.3172856  23.6859221  37.0201290  62.6916802  22.3171981
  40.4556536  60.7028120  13.0638631  39.8385707  59.9774948  12.9671684
  39.9873024  61.4637480  12.7205705  42.1110668  65.4127028  30.7244411
  42.0523214  64.7286249  30.0574994  42.5130186  66.1546018  30.2725037
  32.2455082  54.9213544  12.1859935  31.3684548  54.8002345  11.8222182
  32.7212835  54.1299623  11.9338824  42.1128075  63.3766612  28.9558391
  41.2254854  63.0392534  29.0784790  42.6826626  62.6449644  29.1927156
  23.7657222  59.7090704  22.2801442  24.4528262  59.3952434  21.6922458
  23.6105351  60.6132069  22.0068694  35.6429228  68.0368065  25.9219634
  35.5699400  68.8423036  26.4338939  35.2006621  68.2360031  25.0967656
  35.4319008  67.2739835  19.4322456  34.6486530  67.8161515  19.5260680
  36.1311753  67.7913814  19.8316697  38.7415658  53.0834464  22.0756661
  39.2384357  52.3304427  21.7557731  37.9702639  53.1198781  21.5099870
  46.5945415  58.7874830  23.7174953  46.5835292  59.6699545  23.3468886
  45.7262795  58.4346381  23.5229490  38.1027912  67.9354899  28.0777793
  38.8155884  68.5702364  28.0053694  37.6117940  68.0318765  27.2617795
  39.8245439  61.8406151  19.6495084  38.8901717  61.9607614  19.4799789
  40.0022107  60.9378618  19.3855094  43.2117990  57.6823471  20.1845119
  43.6778442  58.5151462  20.1105421  43.6625490  57.2168452  20.8890377
  33.1539825  65.6849342  28.8983364  33.8549285  66.3185825  29.0512758
  32.6834940  66.0264074  28.1379003  41.2794221  64.0267292  17.1831271
  41.5554065  63.9123887  18.0925145  40.4098720  63.6284777  17.1443444
  37.9148285  68.2753643  20.8264084  38.0970680  67.4575299  21.2891837
  38.7381271  68.4921335  20.3888974  38.2490451  67.2021828  18.0879133
  38.7778217  66.6914283  17.4749295  38.5118670  66.8864358  18.9524666
  28.7507543  65.2185697  25.8314466  29.3360980  64.4729385  25.9642370
  28.5532382  65.5289654  26.7151130  31.6046199  68.2536945  20.8476909
  30.9356574  68.7383072  20.3640949  31.4659068  68.5006165  21.7620287
  23.3425198  57.7891297  24.5518909  23.3809298  57.2554888  25.3456028
  22.8365491  57.2626503  23.9329887  35.7451467  70.2880688  27.4459567
  36.2969775  70.4512310  28.2108652  36.0857661  70.8785126  26.7739592
  40.5962341  65.1141946  33.3008221  41.1402245  65.7271904  32.8063176
  40.0149186  65.6721524  33.8175234  26.9733776  56.5155400  17.6272841
  27.2687217  55.6066078  17.5739895  26.0721811  56.4943139  17.3053843
  38.8819854  68.2362664  24.4323249  38.7570994  67.4352404  23.9234195
  39.5398946  68.7308857  23.9437219  40.9454763  66.0371684  26.0602799
  39.9985098  65.9177035  25.9881126  41.2937536  65.1494182  26.1429061
  28.7021617  54.1969497  17.7512166  28.3734323  53.3166876  17.5687272
  29.0560988  54.1417166  18.6388555  37.9501196  65.8324400  22.2607151
  37.8026159  64.9041107  22.4414722  38.7754690  65.8544491  21.7764227
  31.8163440  54.4842467  18.1187644  32.1559513  55.0128388  17.3966252
  32.2635561  54.8222873  18.8946210  41.5535318  66.6552959  23.3472024
  42.4781865  66.4495820  23.2096475  41.3850621  66.4069360  24.2561366
  33.8031588  52.9817089  16.3180936  34.5239950  53.3598341  15.8144653
  33.1796892  53.7005966  16.4215914  37.9462710  53.6862238  17.2539269
  38.1626325  54.5686876  16.9528097  37.4656778  53.2948451  16.5244911
  41.3430634  67.1738626  18.7034116  41.5167512  66.6085049  17.9507968
  41.8359525  67.9739521  18.5213606  33.9495211  52.5164879  19.1478473
  34.0711122  51.5881525  19.3469361  33.6597253  52.5303565  18.2356788
  47.1970025  59.9375049  20.3224415  47.6401171  59.1882374  19.9243539
  46.3196536  59.9285186  19.9398147  42.3305807  66.4905391  15.8031014
  43.0256711  67.1112083  16.0218329  42.6728957  65.6400742  16.0783392
  44.2297230  63.9405096  17.3318345  44.7548554  64.2792369  16.6067665
  44.1419582  63.0052111  17.1481479  35.8917278  67.8539170  29.4608221
  36.2004405  67.6088317  30.3330921  36.6892760  68.0585808  28.9727092
  35.9137891  70.0077079  21.6913598  35.4742881  69.5153458  22.3846455
  36.6646007  69.4650047  21.4505673  28.3930229  66.1988620  21.6938226
  29.2188249  65.8992392  21.3136870  28.0424281  65.4296243  22.1428015
  33.3611763  65.5515089  23.7635900  32.7391772  64.8885794  23.4638127
  34.0316630  65.5776220  23.0809547  26.5938835  64.1174947  22.6527160
  25.7570743  63.6897121  22.4711161  26.5662480  64.3107390  23.5897951
  43.9191136  64.5738000  32.6369543  43.1286680  64.5562139  32.0974042
  43.6824490  65.1126293  33.3918579  44.0389011  61.4230466  29.9502271
  44.0887016  61.2580474  30.8917794  43.9302934  60.5557725  29.5600152
  32.9225270  64.1019012  17.2394360  33.0713390  64.7854476  16.5861033
  33.7291713  64.0824102  17.7543816  45.5407208  63.8427408  30.1944293
  45.2492016  64.2057388  31.0307754  44.9279339  63.1294416  30.0157625
  46.7402890  61.4080287  22.7146863  47.5749781  61.8470092  22.8784423
  46.8762019  60.9318941  21.8955109  30.6777903  60.1284189  18.2455429
  30.4323944  59.2246519  18.4435639  30.8473817  60.1301340  17.3034907
  29.9473550  55.8612547  15.7441591  29.2542795  55.9356902  15.0881626
  29.7025302  55.0972891  16.2663107  36.4220675  66.5967142  14.7106108
  35.8494642  67.2157329  14.2576579  36.9953469  67.1466504  15.2446030
  39.6417935  66.8804292  15.8414690  40.5748608  66.8149854  16.0447565
  39.5541148  67.7160559  15.3829223  42.2705952  66.1970163  12.8018637
  42.1919583  65.8630026  13.6954395  43.0915618  66.6891931  12.8010110
  36.8067474  57.9327955  12.0522160  37.7526578  57.8034163  12.1210578
  36.4281719  57.1942617  12.5291588  42.7789358  49.5983961  22.0149052
  42.5814179  49.2899049  22.8992384  43.3889064  50.3245600  22.1446982
  50.7860693  60.1247909  25.1500993  51.5164081  59.8633197  25.7108696
  50.1767638  59.3876631  25.1903061  48.8675990  58.2655771  25.7475444
  48.1409153  58.1311736  25.1391936  48.4523277  58.5732600  26.5532162
  36.6906166  61.9845701  33.5122817  37.6109176  62.1624300  33.7062864
  36.6555749  61.0401747  33.3602516  34.9910391  55.8577931  11.9877045
  34.0841846  55.5611044  12.0639759  35.2686372  55.5607750  11.1211332
  25.9088331  57.1784295  22.4376092  25.5891115  56.3249603  22.1450466
  25.3621759  57.3932873  23.1934059  29.6868239  59.8946736  26.1545598
  29.9054248  60.8263844  26.1733632  30.0994012  59.5354710  26.9400402
  36.6072456  50.4014821  18.1421287  35.7973185  50.0561906  18.5176533
  37.2956873  50.0922365  18.7308898  33.7609175  52.7164867  12.1289024
  34.6228339  53.0419765  12.3884842  33.9459520  51.9296363  11.6162090
  25.7776591  60.7987206  24.4069213  25.0840063  60.3841159  23.8939168
  26.5249582  60.8407743  23.8102632  41.9141812  51.5893393  19.2724247
  41.3340481  52.2478197  18.8902300  41.6477745  50.7670738  18.8611665
  40.3645378  50.9898451  21.4745568  40.8645157  51.1014985  20.6659887
  41.0080986  50.6859504  22.1146376  34.4227374  58.8977080  34.3613409
  33.9394456  59.6977441  34.5677298  34.5088313  58.9085025  33.4080853
  27.6913334  60.7305460  22.2835228  27.6684022  60.8293147  21.3317111
  28.0013970  61.5770611  22.6052394  30.3500712  62.7881615  26.3981843
  31.3043965  62.7565557  26.3311774  30.1513235  62.3272239  27.2132068
  30.9400094  61.3582731  28.9652640  31.7592983  61.8526810  28.9887478
  31.2136901  60.4414699  28.9370208  40.6966690  53.7493483  18.3280596
  39.8092545  54.0343134  18.1100791  41.1120679  53.5887247  17.4807873
  44.0481226  53.7740004  22.0434935  44.8241616  54.2636457  22.3159552
  43.3229360  54.1998059  22.5006804  46.4853785  54.4867624  23.1008876
  47.0798275  54.2463360  22.3902184  46.5580368  53.7674754  23.7282412
  28.7050940  68.3301235  23.4152040  28.5705408  67.5701636  22.8490038
  28.2883003  69.0542134  22.9480829  39.8409903  63.5138158  12.4228616
  40.5445753  63.7188161  13.0386271  39.1172552  64.0814920  12.6877699
  40.6707714  59.2648019  18.5430886  40.6142915  59.7216571  17.7038518
  41.2236056  58.5038704  18.3653729  44.4812520  55.0537751  19.3681005
  44.2249454  54.6534387  20.1989213  43.8565388  55.7681545  19.2431145
  48.7924857  57.7933825  21.8752297  48.2324415  57.8627014  22.6483859
  48.1868361  57.6174809  21.1551793  31.8620066  69.2270552  23.6270483
  31.7452450  70.1715984  23.5249173  31.0412512  68.9244113  24.0156282
  41.7496601  63.9520687  14.4727076  42.5842205  63.5201886  14.2904551
  41.5880944  63.7802701  15.4003970  41.4042493  60.4552801  15.8383415
  41.3491297  60.2897072  14.8971859  40.7788548  61.1628834  15.9945605
  38.7188400  62.7601713  35.1636978  39.5879560  62.9342365  34.8023613
  38.2395152  63.5796129  35.0412707  34.7138618  49.9560910  15.4168733
  34.7017288  50.9002750  15.5737004  35.6062040  49.7731055  15.1228195
  32.8874580  69.8798814  26.8426412  33.7901827  69.9122424  27.1592906
  32.6611950  68.9499264  26.8572747  34.6428182  68.6329800  23.5036490
  33.6923813  68.6331662  23.3900862  34.9460668  67.8862535  22.9872525
  50.3780876  74.4690338  24.5682253  51.0159286  74.3497086  23.8645593
  50.2601719  75.4171182  24.6270205  47.1870582  74.4217767  24.5043777
  46.8489094  74.3058831  23.6164312  48.0560350  74.0208932  24.4844783
  43.0457398  76.2753243  20.4940668  42.4822263  76.1843180  19.7256956
  42.9309793  75.4553147  20.9743161  47.6690365  75.5752618  30.4629983
  47.6579006  75.1805417  29.5910486  47.8311005  74.8418691  31.0563754
  45.3153833  75.7366579  26.0010526  45.9117405  75.5122601  25.2867489
  45.3728805  74.9951324  26.6035974  49.9322144  72.1941792  21.6435461
  50.7185234  71.7761215  21.2925878  50.1960849  73.0987885  21.8117109
  55.3330571  72.1317026  22.5468439  56.0655743  71.5616242  22.7806269
  54.5769927  71.7438626  22.9874945  46.9506691  74.5544267  19.7431782
  46.5864898  74.0274888  20.4544703  47.8073807  74.1642736  19.5698267
  52.8555992  65.8438600  27.0063048  52.5239317  66.7134011  26.7824263
  52.2601605  65.5274884  27.6857078  42.7999993  74.4964942  22.4395665
  41.8750489  74.3641157  22.6473357  43.0484406  75.2759162  22.9365607
  52.7484655  70.5633686  24.0856398  51.8401532  70.4949094  23.7915159
  52.6972251  71.0405631  24.9138223  40.1608804  74.1398216  23.2739454
  40.2901185  74.3932695  24.1878866  39.4806255  74.7325924  22.9544109
  46.8225521  71.9823331  32.0291295  46.0458855  72.5417252  32.0194160
  47.4616084  72.4680114  32.5506165  54.6146302  68.7650124  25.8634272
  53.9720682  69.0582657  25.2174066  54.1101230  68.6503045  26.6687468
  45.0771893  74.7908785  31.5909262  45.8186578  75.3293829  31.3144086
  44.3708879  75.4175074  31.7480814  50.5527233  76.9337925  30.1881424
  50.9610589  76.4920336  29.4436056  49.8304494  76.3590553  30.4415616
  46.9058303  71.8710532  27.5614980  47.7519498  72.2949946  27.7049629
  46.8456941  71.2144156  28.2553544  50.0557748  69.5314900  29.2196154
  49.8118680  70.2856961  28.6830430  50.3317679  69.9100248  30.0543401
  49.6122440  68.6871333  24.8009992  48.7506919  68.9852587  25.0926729
  49.6384875  68.9041732  23.8691024  45.3652895  73.3536676  18.0173363
  46.0676939  73.8057720  18.4847289  45.0333524  72.7120495  18.6453256
  43.8133257  71.9448433  32.3924572  43.1831918  72.6264714  32.6259969
  43.7069345  71.8331515  31.4477710  39.1078229  71.6120229  23.3190496
  38.3177283  71.8677758  22.8430607  39.5989477  72.4268567  23.4242537
  41.0592975  71.9764808  20.2773973  40.2624138  72.0883502  20.7957469
  40.8318567  72.3151460  19.4114863  37.3915932  71.8650719  25.7505487
  37.6423971  72.7497729  26.0163063  37.9275481  71.6855321  24.9780579
  43.0914000  66.2469199  34.7549823  42.6980945  65.6935397  35.4297467
  43.9080140  66.5579777  35.1456341  46.0081961  67.6627078  32.3470080
  46.7491674  68.2634231  32.2674542  46.2399883  66.9204716  31.7888122
  41.1523299  72.8483445  30.6248309  41.0376814  71.9468702  30.9255408
  40.2967816  73.0947142  30.2733126  49.9539124  63.6908181  26.6234361
  49.6103393  64.5809822  26.5473472  50.3218086  63.5009838  25.7603946
  47.5036517  68.5266493  20.1892035  46.6478114  68.1373343  20.0097674
  47.9163469  68.6058453  19.3291820  49.0335664  66.0612836  24.5883595
  48.5300460  66.0242971  23.7751400  49.3266271  66.9705579  24.6480251
  45.2778550  66.1451566  23.5949776  46.1431547  65.9494374  23.2355666
  45.3456059  65.9161917  24.5219133  42.8840869  68.3753774  20.9666143
  43.4584621  68.1528955  20.2339336  43.4711851  68.4442468  21.7194744
  51.9420446  74.2627501  21.7730520  52.4552328  74.8957492  22.2752229
  52.5921670  73.6628696  21.4073880  45.1863537  65.2495023  19.6941213
  44.5327949  64.9344040  19.0697827  45.1444011  64.6270763  20.4201035
  48.4201277  71.7376956  24.0188860  47.5023838  71.9591903  23.8610548
  48.8361421  71.8123267  23.1600568  51.6515162  70.1725488  21.1310330
  50.9137919  69.6602874  21.4620572  51.9041935  69.7325870  20.3193607
  51.7526789  62.9501740  21.7252099  52.0585666  62.0899103  21.4378014
  52.4779394  63.5419360  21.5251093  38.0451145  73.3532427  20.1133697
  37.8475545  72.7601787  19.3884763  37.4897809  73.0484637  20.8309636
  46.0247869  73.2455533  22.2328290  46.0796479  72.2929369  22.1570767
  45.2139071  73.4014972  22.7169588  43.9640229  71.8632593  19.9918669
  43.1508094  72.1626763  20.3983861  44.4599223  71.4688282  20.7093151
  49.5614441  72.3274417  28.8233563  49.9163828  72.5545890  29.6828029
  50.2086572  72.6592794  28.2010818  43.4554304  69.4350948  25.6079904
  44.0953683  69.2939707  24.9102867  42.6231834  69.1485462  25.2318506
  40.5397371  72.8796460  17.7974649  39.6094959  72.8180916  18.0144611
  40.6354843  72.3572413  17.0011290  40.4582920  69.4051273  20.3852891
  40.7189737  70.3196607  20.2762051  41.2800092  68.9375716  20.5349503
  41.9307845  70.8189030  27.5551715  42.6030899  70.6106393  26.9064364
  41.1037632  70.6211116  27.1156948  47.8333417  67.4450971  29.5717376
  47.1861332  68.1440921  29.4781852  48.6034433  67.8787115  29.9393624
  48.0097552  75.2831736  27.6314196  48.9389612  75.4342896  27.4583163
  47.5888582  75.3715757  26.7762842  42.3335343  74.0931633  28.3154152
  42.1955141  73.3611872  28.9165691  43.2440266  74.0040534  28.0338340
  44.9617643  73.8051593  27.8037832  45.6717262  73.1644785  27.7624450
  44.9186952  74.0564488  28.7264013  43.6746577  70.7916811  29.6233471
  43.1383934  70.3407549  30.2755068  43.0863286  70.9262720  28.8803936
  39.4085699  69.9272818  26.7086466  39.3243887  69.3198488  25.9736876
  38.5868405  70.4181837  26.7095962  49.5809412  68.4126382  22.0756661
  50.0778112  67.6596344  21.7557731  48.8096394  68.4490699  21.5099870
  46.1644381  70.5543765  21.8028346  45.7942169  70.0014805  22.4909251
  46.6603474  69.9501898  21.2503346  52.0228407  65.3795975  24.2236020
  51.1091487  65.6100202  24.3918227  52.4521509  65.4634419  25.0750052
  51.7934866  73.5685867  26.7235914  51.1406316  73.8161775  26.0688367
  52.1715246  72.7550006  26.3898391  47.8422439  74.3105678  33.2101951
  47.1663076  74.2099808  33.8804326  48.6650073  74.1544892  33.6737948
  34.1818953  73.1183215  24.5518909  34.2203052  72.5846806  25.3456028
  33.6759245  72.5918421  23.9329887  41.5609715  67.9647756  28.0481452
  41.6251041  68.8262587  27.6358849  41.4976835  67.3521757  27.3153810
  41.0361987  70.0370888  31.6954486  41.6634026  69.6547966  32.3092010
  40.1789906  69.8185090  32.0610178  37.8127530  71.8447317  17.6272841
  38.1080971  70.9357996  17.5739895  36.9115566  71.8235057  17.3053843
  41.3421777  69.9203314  23.6100389  40.6208363  70.5339282  23.4707863
  42.1315033  70.4561079  23.5317035  44.1448091  67.2557740  29.8841041
  44.6682492  67.5020037  30.6467350  43.9260424  68.0877775  29.4644178
  39.5415372  69.5261415  17.7512166  39.2128078  68.6458794  17.5687272
  39.8954742  69.4709084  18.6388555  42.6557195  69.8134385  18.1187644
  42.9953267  70.3420306  17.3966252  43.1029315  70.1514791  18.8946210
  45.3500636  68.1971436  27.5690712  45.0097456  67.3979249  27.9711392
  44.6439642  68.4973146  26.9967545  46.0017108  65.2820748  26.0218035
  46.8243177  64.8081226  25.8996925  46.2455171  66.0611232  26.5216721
  44.6425342  68.3109006  16.3180936  45.3633705  68.6890259  15.8144653
  44.0190646  69.0297883  16.4215914  48.7856465  69.0154155  17.2539269
  49.0020079  69.8978793  16.9528097  48.3050532  68.6240369  16.5244911
  43.5255686  71.9739869  23.8310013  43.3800267  72.2880172  24.7234295
  43.0480890  72.5924769  23.2780912  45.3852069  68.9642417  23.8790903
  45.3713638  68.0683510  23.5423201  46.1024497  68.9713080  24.5129189
  47.2378200  69.3979757  25.9244030  46.9795978  70.3196827  25.9228361
  46.7063240  69.0010191  26.6144494  44.7888965  67.8456797  19.1478473
  44.9104876  66.9173443  19.3469361  44.4991007  67.8595483  18.2356788
  47.6580155  65.5311707  22.2845193  47.6801852  65.5951040  21.3297172
  48.0748214  64.6916216  22.4785699  38.7867370  73.6415109  29.6627831
  38.0449106  73.7897745  30.2492462  38.4660115  73.9023375  28.7994581
  44.2730045  69.3588794  33.3568406  44.3218200  70.2350917  32.9746175
  44.8152559  68.8166187  32.7840049  52.1686528  72.7353312  31.2661578
  53.0696391  72.5959777  30.9745576  52.2434502  72.9007767  32.2059755
  46.5029333  70.1120167  30.1114764  45.6332642  70.4053733  29.8397353
  46.7388813  70.6960612  30.8322028  41.5171657  75.4576107  18.2455429
  41.2717699  74.5538437  18.4435639  41.6867572  75.4593258  17.3034907
  49.2068367  66.3299784  27.6280185  49.7250311  67.0660810  27.3026673
  48.8523500  66.6363777  28.4626944  40.7867305  71.1904465  15.7441591
  40.0936550  71.2648820  15.0881626  40.5419056  70.4264808  16.2663107
  49.4580961  62.7500066  23.1481081  49.7382715  62.0823255  23.7741508
  50.2431568  62.9429162  22.6355745  53.3289819  71.1717700  26.8952656
  54.2807242  71.2715798  26.9164880  53.1593270  70.3795969  27.4050741
  51.3504199  68.2573283  27.0812057  50.7554131  68.5378296  26.3858546
  51.0653896  68.7467184  27.8528798  55.9572386  71.1834863  26.0553239
  55.4411434  70.3993320  25.8683168  56.8412334  70.8553580  26.2199759
  53.6183113  64.9275879  22.0149052  53.4207934  64.6190967  22.8992384
  54.2282818  65.6537518  22.1446982  47.5299921  77.3137619  33.5122817
  48.4502930  77.4916218  33.7062864  47.4949504  76.3693664  33.3602516
  36.7482086  72.5076213  22.4376092  36.4284870  71.6541521  22.1450466
  36.2015514  72.7224791  23.1934059  47.4466211  65.7306739  18.1421287
  46.6366939  65.3853824  18.5176533  48.1350628  65.4214283  18.7308898
  49.3756759  64.8084786  19.7645583  49.9287798  65.2280239  20.4235606
  49.6126846  63.8820534  19.8068539  45.3989858  70.7971859  35.5448347
  45.2986585  71.7466216  35.4760438  45.1811401  70.4690098  34.6724417
  52.7535566  66.9185311  19.2724247  52.1734235  67.5770115  18.8902300
  52.4871499  66.0962655  18.8611665  51.2039133  66.3190368  21.4745568
  51.7038911  66.4306903  20.6659887  51.8474741  66.0151421  22.1146376
  45.2621129  74.2268998  34.3613409  44.7788210  75.0269358  34.5677298
  45.3482068  74.2376943  33.4080853  54.8874980  69.1031922  22.0434935
  55.6635371  69.5928375  22.3159552  54.1623115  69.5289976  22.5006804
  57.3247539  69.8159541  23.1008876  57.9192030  69.5755277  22.3902184
  57.3974123  69.0966672  23.7282412  37.0328762  71.0212783  29.6644837
  37.6787626  70.5111737  30.1532062  36.8245914  71.7581464  30.2388263
  45.5532373  65.2852827  15.4168733  45.5411043  66.2294667  15.5737004
  46.4455795  65.1022973  15.1228195  49.3684492  61.8795604  19.6714670
  48.6016888  61.3254091  19.8171353  49.7795197  61.9517473  20.5328822
  41.3726253  68.1680400  33.7619852  42.2357715  67.8117205  33.9723176
  40.7991664  67.8294295  34.4495256  15.7133874  11.8087555  18.9481117
  15.2697728  11.0223934  18.6302021  16.3751088  11.9966706  18.2825007
  17.8115112  12.0890355  16.9762518  17.7933588  12.9099236  16.4842787
  18.7335032  11.9644430  17.2012659  14.2688166   9.6034484  17.8186026
  14.8016503   8.8422773  17.5885334  13.7402248   9.3108136  18.5610181
  23.6615845   8.5779450  13.7972355  23.8551735   9.4825261  14.0431630
  23.5616463   8.1186869  14.6310940  18.7230953   8.7286193  19.3713236
  18.5716460   8.4996745  18.4543320  18.7135633   9.6856795  19.3844581
  20.4323160  11.7605316  17.4489718  20.3735706  11.0764536  16.7820301
  20.8342678  12.5024306  16.9970344  20.4340567   9.7244900  15.6803698
  19.5467346   9.3870821  15.8030096  21.0039118   8.9927931  15.9172463
  16.4240404  14.2833186  14.8023099  17.1368376  14.9180651  14.7299001
  15.9330433  14.3797052  13.9863101  15.3241177   5.3292048  19.9347258
  14.6481814   5.2286177  20.6049633  16.1468810   5.1731262  20.3983255
  14.0663959  16.6358975  14.1704874  14.6182267  16.7990597  14.9353959
  14.4070153  17.2263413  13.4984898  18.9174834  11.4620233  20.0253528
  19.4614738  12.0750191  19.5308483  18.3361679  12.0199811  20.5420541
  14.2129771  14.2017457  16.1853528  14.5216897  13.9566604  17.0576228
  15.0105253  14.4064095  15.6972398  22.2403628  10.9216287  19.3614849
  21.4499172  10.9040426  18.8219349  22.0036983  11.4604581  20.1163886
  22.3601503   7.7708753  16.6747578  22.4099508   7.6058761  17.6163101
  22.2515426   6.9036012  16.2845459  23.8619700  10.1905695  16.9189599
  23.5704508  10.5535675  17.7553060  23.2491831   9.4772703  16.7402931
  15.0118658   8.3323988  20.2368124  15.9321668   8.5102587  20.4308170
  14.9768241   7.3880034  20.0847823  12.7439866   5.2455368  21.0858715
  12.2606948   6.0455728  21.2922604  12.8300805   5.2563313  20.1326159
  17.0400892   9.1080000  21.8882284  17.9092052   9.2820652  21.5268919
  16.5607644   9.9274417  21.7658014  28.6993368  20.8168626  11.2927559
  29.3371778  20.6975373  10.5890899  28.5814211  21.7649470  11.3515511
  25.5083074  20.7696054  11.2289084  25.1701586  20.6537119  10.3409619
  26.3772843  20.3687219  11.2090090  25.9902857  21.9230906  17.1875289
  25.9791498  21.5283704  16.3155793  26.1523497  21.1896978  17.7809061
  18.9134322  24.1182722  10.0570195  19.7055614  23.7773546   9.6416495
  19.1530972  24.2277697  10.9772349  26.9469449  26.2902498   2.5300440
  26.2957429  26.8756578   2.1434454  27.7413812  26.8208693   2.5895477
  23.6366325  22.0844866  12.7255833  24.2329898  21.8600888  12.0112796
  23.6941297  21.3429611  13.3281281  28.2534637  18.5420080   8.3680767
  29.0397726  18.1239503   8.0171184  28.5173341  19.4466172   8.5362416
  33.6543064  18.4795313   9.2713746  34.3868236  17.9094530   9.5051575
  32.8982419  18.0916913   9.7120251  25.2719183  20.9022554   6.4677088
  24.9077391  20.3753175   7.1790010  26.1286299  20.5121023   6.2943574
  31.1768484  12.1916887  13.7308354  30.8451809  13.0612298  13.5069569
  30.5814097  11.8753171  14.4102385  27.6700004  24.3929433  13.1304267
  27.3700727  25.2954472  13.0220074  27.3251063  24.1261616  13.9825420
  21.1212485  20.8443230   9.1640971  20.1962982  20.7119444   9.3718663
  21.3696898  21.6237449   9.6610914  31.0697147  16.9111973  10.8101704
  30.1614025  16.8427381  10.5160465  31.0184743  17.3883918  11.6383530
  18.4821296  20.4876503   9.9984761  18.6113677  20.7410982  10.9124172
  17.8018747  21.0804211   9.6789416  22.6520783  31.1573753   6.0975235
  22.5744813  32.1081578   6.1763715  22.0482427  30.8119626   6.7550161
  25.1438013  18.3301619  18.7536602  24.3671347  18.8895539  18.7439466
  25.7828576  18.8158402  19.2751472  32.9358794  15.1128411  12.5879578
  32.2933174  15.4060945  11.9419373  32.4313722  14.9981332  13.3932775
  23.3984385  21.1387072  18.3154569  24.1399070  21.6772116  18.0389392
  22.6921371  21.7653361  18.4726120  25.2270795  18.2188819  14.2860287
  26.0731990  18.6428233  14.4294936  25.1669433  17.5622444  14.9798850
  29.1968540  23.8417403  10.6679019  28.5677402  24.0063117   9.9655087
  28.8094202  24.2559013  11.4389983  33.0757772  24.7771841   8.0223383
  32.3908810  25.1570742   7.4720416  33.1601621  25.3867168   8.7555331
  28.3770240  15.8793188  15.9441461  28.1331172  16.6335248  15.4075736
  28.6530171  16.2578535  16.7788708  30.3308703  22.4231800  14.6218726
  30.5425599  23.0663560  13.9453107  30.2838452  21.5894117  14.1540656
  27.9334932  15.0349621  11.5255298  27.0719411  15.3330874  11.8172036
  27.9597367  15.2520020  10.5936331  24.7496502  23.5791811   7.9329104
  25.2134847  23.8579514   7.1433727  24.4853300  22.6775256   7.7502195
  21.6420583  23.1263293  10.8708867  22.2121940  23.5550561  10.2326352
  22.2328695  22.8445877  11.5693053  22.1345749  18.2926720  19.1169879
  21.5044410  18.9743001  19.3505275  22.0281837  18.1809802  18.1723017
  31.4454531  25.3003755  12.7941084  32.2671975  24.8983943  12.5123765
  31.4416934  25.1971990  13.7457199  15.7128425  18.2129007  12.4750794
  15.9636463  19.0976017  12.7408370  16.2487973  18.0333608  11.7025885
  39.5360524  21.6442504   9.1426055  38.7824233  21.0749902   8.9870060
  39.6708065  21.6105168  10.0896690  24.9259152  26.5155906   4.8180774
  24.7904827  27.3607442   5.2465622  25.4668965  26.7175184   4.0546708
  21.4126492  12.5947486  21.4795130  21.0193438  12.0413685  22.1542774
  22.2292632  12.9058064  21.8701647  20.1883434  27.1497100   7.4731453
  20.3650063  28.0715065   7.2852437  20.9840268  26.8355520   7.9025833
  24.3294453  14.0105365  19.0715386  25.0704166  14.6112518  18.9919849
  24.5612376  13.2683003  18.5133429  19.4735791  19.1961732  17.3493616
  19.3589306  18.2946990  17.6500715  18.6180309  19.4425429  16.9978432
  21.3114750  28.6675274  13.4741795  21.8622175  28.5392338  12.7018789
  20.4726226  28.9670163  13.1236688  28.2751616  10.0386468  13.3479668
  27.9315885  10.9288110  13.2718779  28.6430578   9.8488126  12.4849253
  27.3548156  12.4091123  11.3128901  26.8512952  12.3721258  10.4996706
  27.6478763  13.3183866  11.3725558  33.2136173  22.7827434   3.7905277
  32.4365616  22.4438593   3.3460439  33.8927654  22.7880057   3.1160242
  26.4734634  24.0612395   5.3304838  25.9455995  23.3265154   5.0178076
  25.9722136  24.8387071   5.0844807  31.4527480  22.2561415  10.4471885
  30.7951154  22.9460676  10.5352013  32.2567879  22.6457847  10.7905871
  30.2632938  20.6105788   8.4975826  30.7764820  21.2435780   8.9997536
  30.9134162  20.0106983   8.1319186  27.5255313  30.5890112   1.2536497
  26.8517011  30.8921809   1.8621455  27.9121135  31.3919192   0.9041954
  26.7413769  18.0855243  10.7434167  25.8236331  18.3070190  10.5855855
  27.1573913  18.1601554   9.8845874  27.5248817  19.4846659   5.8736847
  28.2720636  19.9968056   5.5643969  27.7940407  19.1630712   6.7341241
  31.0294735  25.5911789   6.6254969  30.5757062  24.7502699   6.6820159
  30.3988701  26.2273188   6.9629749  29.9727654  16.5203775   7.8555636
  29.2350411  16.0081161   8.1865879  30.2254428  16.0804157   7.0438913
  29.4727674  27.4288286   7.5604787  29.7650648  27.9893343   6.8417153
  29.9826294  27.7216847   8.3157946  24.3460361  19.5933820   8.9573597
  24.4008971  18.6407657   8.8816073  23.5351563  19.7493259   9.4414895
  24.4361299  28.2068637   8.6498240  24.3937478  28.4329483   7.7206772
  25.3523998  27.9732012   8.7984041  27.8826933  18.6752705  15.5478869
  28.2376321  18.9024178  16.4073335  28.5299064  19.0071081  14.9256125
  33.6124670  21.7971140   6.2528198  33.4742568  21.9872736   5.3249388
  33.2560889  22.5590523   6.7096250  21.7766796  15.7829236  12.3325211
  22.4166175  15.6417995  11.6348174  20.9444327  15.4963749  11.9563813
  33.6394049  23.8647667  11.2639470  34.0730556  23.7722957  12.1122524
  34.3525630  23.8405168  10.6259486  22.5527100  25.0831666   8.4460203
  23.3467698  24.5881986   8.2442778  21.8418792  24.5549529   8.0827909
  27.3721944  27.4649762  12.7972571  27.4258967  28.0340698  13.5650286
  26.5036726  27.6351647  12.4326608  20.2520338  17.1667318  14.2797022
  20.9243391  16.9584680  13.6309671  19.4250124  16.9689404  13.8402254
  34.5009599  23.9071368  13.7972355  34.6945489  24.8117179  14.0431630
  34.4010217  23.4478787  14.6310940  26.1545910  13.7929259  16.2962683
  25.5073825  14.4919208  16.2027159  26.9246925  14.2265403  16.6638931
  26.3310044  21.6310024  14.3559502  27.2602104  21.7821183  14.1828470
  25.9101074  21.7194044  13.5008149  25.1298376  25.6560688  12.1258040
  24.9909462  25.2879472  12.9983978  24.3412972  26.1708327  11.9541998
  25.7246528  30.7569784   3.4683577  25.8998284  30.2857828   4.2829199
  25.0379316  31.3835551   3.6964837  26.6803591  25.0342291   9.5146878
  26.3453424  24.9943061  10.4104528  26.1807537  24.3687007   9.0417288
  20.6547835  20.4409921  15.0399459  20.5167633  19.7090160  15.6410998
  21.5652758  20.3518821  14.7583647  23.2830136  20.1529880  14.5283139
  23.9929754  19.5123072  14.4869757  23.2399444  20.4042775  15.4509319
  21.9959070  17.1395098  16.3478778  21.4596427  16.6885836  17.0000374
  21.4075778  17.2741007  15.6049242  20.2907613  33.9059147  10.2423437
  20.5304211  34.5377671  10.9202455  19.4476810  33.5547187  10.5288796
  31.2734322  25.0536817  15.6803698  30.3861100  24.7162739  15.8030096
  31.8432873  24.3219849  15.9172463  17.7298191  16.2751106  13.4331773
  17.6456380  15.6676775  12.6982183  16.9080897  16.7660124  13.4341269
  24.8035475  29.7138270  12.6464941  24.7305646  30.5193241  13.1584245
  24.3612868  29.9130235  11.8212962  24.5925255  28.9510040   6.1567762
  23.8092776  29.4931720   6.2505987  25.2918000  29.4684019   6.5562003
  35.7551662  20.4645035  10.4420259  35.7441538  21.3469750  10.0714192
  34.8869042  20.1116586  10.2474796  28.9851685  23.5176356   6.3740391
  28.0507964  23.6377819   6.2045095  29.1628354  22.6148823   6.1100401
  32.3724237  19.3593676   6.9090425  32.8384689  20.1921667   6.8350728
  32.8231737  18.8938657   7.6135684  22.3146072  27.3619547  15.6228670
  23.0155532  27.9956030  15.7758064  21.8441187  27.7034279  14.8624309
  30.4400468  25.7037497   3.9076577  30.7160312  25.5894092   4.8170451
  29.5704967  25.3054982   3.8688750  30.3440900  11.7274263  10.9481327
  29.4303979  11.9578489  11.1163533  30.7734001  11.8112707  11.7995359
  30.1147358  19.9164155  13.4481221  29.4618808  20.1640062  12.7933673
  30.4927738  19.1028293  13.1143698  27.0754532  29.9523848   7.5509391
  27.2576926  29.1345504   8.0137143  27.8987518  30.1691540   7.1134281
  27.4096697  28.8792033   4.8124439  27.9384464  28.3684487   4.1994601
  27.6724917  28.5634563   5.6769972  26.1634931  20.6583966  19.9347258
  25.4875568  20.5578095  20.6049633  26.9862565  20.5023179  20.3983255
  17.9113790  26.8955902  12.5559773  18.4967227  26.1499590  12.6887677
  17.7138629  27.2059859  13.4396437  20.7652445  29.9307150   7.5722215
  20.0962821  30.4153277   7.0886255  20.6265315  30.1776370   8.4865594
  24.9057714  31.9650893  14.1704874  25.4576022  32.1282515  14.9353959
  25.2463907  32.5555331  13.4984898  19.8822207  14.3126043  14.7726758
  19.9463534  15.1740874  14.3604156  19.8189327  13.7000045  14.0399117
  19.3574480  16.3849175  18.4199793  19.9846518  16.0026253  19.0337317
  18.5002399  16.1663377  18.7855485  28.0426101  29.9132869  11.1568556
  27.9177241  29.1122608  10.6479501  28.7005192  30.4079062  10.6682526
  30.1061010  27.7141889  12.7848106  29.1591345  27.5947240  12.7126433
  30.4543783  26.8264387  12.8674367  22.4660583  13.6036028  16.6086348
  22.9894985  13.8498324  17.3712657  22.2472916  14.4356062  16.1889485
  27.1107443  27.5094605   8.9852458  26.9632405  26.5811312   9.1660028
  27.9360936  27.5314696   8.5009533  30.7141565  28.3323164  10.0717331
  31.6388112  28.1266025   9.9341782  30.5456868  28.0839565  10.9806672
  23.6713128  14.5449723  14.2936018  23.3309948  13.7457536  14.6956698
  22.9652134  14.8451434  13.7212852  24.3229600  11.6299035  12.7463341
  25.1455669  11.1559513  12.6242232  24.5667663  12.4089519  13.2462028
  21.8468179  18.3218156  10.5555320  21.7012759  18.6358459  11.4479601
  21.3693382  18.9403056  10.0026219  25.5590692  15.7458044  12.6489337
  25.3008470  16.6675115  12.6473667  25.0275733  15.3488479  13.3389801
  30.5036881  28.8508831   5.4279422  30.6773758  28.2855254   4.6753275
  30.9965772  29.6509726   5.2458912  16.3213841  20.8623500  13.4942981
  15.7767309  21.6383308  13.6263255  17.1993191  21.2094305  13.3362103
  36.3576272  21.6145254   7.0469722  36.8007418  20.8652579   6.6488845
  35.4802782  21.6055390   6.6643454  31.4912053  28.1675596   2.5276321
  32.1862958  28.7882288   2.7463635  31.8335204  27.3170947   2.8028698
  17.1079863  19.9893396  16.3873138  16.3661599  20.1376032  16.9737768
  16.7872607  20.2501662  15.5239887  33.3903477  25.6175301   4.0563651
  33.9154801  25.9562574   3.3312971  33.3025829  24.6822316   3.8726786
  25.0744137  31.6847284   8.4158905  24.6349128  31.1923663   9.1091761
  25.8252254  31.1420252   8.1750980  17.5536476  27.8758825   8.4183533
  18.3794496  27.5762597   8.0382176  17.2030528  27.1066448   8.8673321
  22.5218009  27.2285293  10.4881206  21.8998019  26.5655998  10.1883434
  23.1922876  27.2546425   9.8054854  15.7545081  25.7945152   9.3772466
  14.9176990  25.3667326   9.1956467  15.7268727  25.9877595  10.3143257
  22.5942537  15.7067081  20.0813712  22.6430692  16.5829204  19.6991482
  23.1365051  15.1644474  19.5085355  33.1995258  23.1000671  16.6747578
  33.2493263  22.9350679  17.6163101  33.0909181  22.2327930  16.2845459
  30.4899020  19.0831599  17.9906885  31.3908883  18.9438064  17.6990882
  30.5646995  19.2486054  18.9305062  24.8241825  16.4598454  16.8360071
  23.9545135  16.7532020  16.5642659  25.0601306  17.0438899  17.5567335
  35.9009137  23.0850492   9.4392170  36.7356028  23.5240296   9.6029730
  36.0368266  22.6089146   8.6200415  32.9500643  20.6430227  15.3869657
  33.4254764  20.8357874  14.5788509  32.0266208  20.6989413  15.1413041
  27.5280859  12.6778071  14.3525491  28.0462803  13.4139098  14.0271980
  27.1735992  12.9842064  15.1872250  31.6502312  17.5195987  13.6197963
  32.6019735  17.6194085  13.6410187  31.4805762  16.7274256  14.1296047
  29.6716691  14.6051571  13.8057364  29.0766623  14.8856583  13.1103853
  29.3866388  15.0945471  14.5774105  28.8024182  28.5574497   2.5659996
  29.7354855  28.4920059   2.7692872  28.7147394  29.3930764   2.1074529
  31.4312198  27.8740368  -0.4736056  31.3525830  27.5400231   0.4199702
  32.2521865  28.3662136  -0.4744584  34.1290389  20.7402107  12.7340263
  34.0966710  19.8018108  12.9199946  34.7391013  20.8186144  12.0006088
  34.2784878  17.5313150  12.7798546  33.7623927  16.7471607  12.5928475
  35.1624827  17.2031867  12.9445065  39.9466939  21.8018114  11.8746299
  40.6770328  21.5403402  12.4354003  39.3373885  21.0646836  11.9148367
  38.0282236  19.9425976  12.4720751  37.3015400  19.8081941  11.8637242
  37.6129523  20.2502805  13.2777469  18.8474485  21.5716941  12.8790905
  19.0660495  22.5034049  12.8978939  19.2600259  21.2124915  13.6645709
  23.7202351  17.1450147  22.2693654  23.6199078  18.0944503  22.2005745
  23.5023893  16.8168385  21.3969724  14.9382838  22.4757411  11.1314520
  14.2446309  22.0611364  10.6184474  15.6855829  22.5177948  10.5347939
  23.5833621  20.5747285  21.0858715  23.1000703  21.3747645  21.2922604
  23.6694560  20.5855230  20.1326159  19.5106958  24.4651820  13.1227149
  20.4650212  24.4335762  13.0557081  19.3119482  24.0042444  13.9377375
  20.1006340  23.0352936  15.6897947  20.9199229  23.5297015  15.7132784
  20.3743148  22.1184904  15.6615514  33.2087473  15.4510209   8.7680242
  33.9847863  15.9406662   9.0404858  32.4835607  15.8768264   9.2252111
  35.6460031  16.1637829   9.8254182  36.2404522  15.9233565   9.1147490
  35.7186615  15.4444959  10.4527719  17.8657187  30.0071440  10.1397347
  17.7311655  29.2471840   9.5735345  17.4489249  30.7312339   9.6726136
  29.8313960  20.9418224   5.2676193  29.7749162  21.3986776   4.4283825
  30.3842303  20.1808909   5.0899035  33.6418766  16.7307956   6.0926312
  33.3855701  16.3304592   6.9234520  33.0171634  17.4451750   5.9676451
  37.9531104  19.4704029   8.5997603  37.3930662  19.5397219   9.3729165
  37.3474608  19.2945014   7.8797100  21.0226313  30.9040757  10.3515790
  20.9058697  31.8486189  10.2494480  20.2018759  30.6014318  10.7401589
  30.9102848  25.6290892   1.1972382  31.7448451  25.1972091   1.0149857
  30.7487190  25.4572906   2.1249277  15.3541255  17.3691070  16.3890144
  16.0000118  16.8590024  16.8777369  15.1458406  18.1059752  16.9633569
  22.0480827  31.5569018  13.5671718  22.9508074  31.5892629  13.8838213
  21.8218197  30.6269469  13.5818054  23.8034429  30.3100005  10.2281797
  22.8530060  30.3101867  10.1146169  24.1066915  29.5632740   9.7117831
  19.6938746  14.5158687  20.4865158  20.5570207  14.1595492  20.6968483
  19.1204156  14.1772582  21.1740562  39.5387123  36.1460543  11.2927559
  40.1765533  36.0267291  10.5890899  39.4207965  37.0941387  11.3515511
  36.3476829  36.0987972  11.2289084  36.0095340  35.9829036  10.3409619
  37.2166597  35.6979137  11.2090090  32.2063645  37.9523448   7.2185975
  31.6428510  37.8613385   6.4502263  32.0916040  37.1323352   7.6988467
  36.8296612  37.2522823  17.1875289  36.8185253  36.8575621  16.3155793
  36.9917251  36.5188896  17.7809061  29.7528077  39.4474640  10.0570195
  30.5449368  39.1065464   9.6416495  29.9924727  39.5569615  10.9772349
  37.7863203  41.6194416   2.5300440  37.1351183  42.2048496   2.1434454
  38.5807566  42.1500611   2.5895477  31.7118830  38.7083553   2.9287574
  32.4849706  38.1612540   2.7900450  32.0644229  39.5727802   3.1402035
  33.5503873  40.0359935  16.1354473  33.2593739  40.9405566  16.0201140
  34.1860857  40.0776463  16.8498543  34.4760080  37.4136784  12.7255833
  35.0723652  37.1892806  12.0112796  34.5335051  36.6721529  13.3281281
  34.0485108  34.8676219   0.5606024  34.3010629  34.3457740  -0.2010513
  33.1109667  34.7042364   0.6632708  39.0928391  33.8711997   8.3680767
  39.8791480  33.4531420   8.0171184  39.3567095  34.7758089   8.5362416
  39.2638468  39.3084848   3.0669424  38.6284301  39.3819474   3.7790329
  38.9335875  39.8978446   2.3888503  44.4936818  33.8087230   9.2713746
  45.2261990  33.2386447   9.5051575  43.7376174  33.4208831   9.7120251
  33.7681397  36.7704325   2.7630399  33.6517655  36.0949228   3.4311483
  33.8783657  36.2836699   1.9462552  36.1112938  36.2314472   6.4677088
  35.7471145  35.7045093   7.1790010  36.9680054  35.8412941   6.2943574
  42.0162239  27.5208805  13.7308354  41.6845563  28.3904216  13.5069569
  41.4207852  27.2045089  14.4102385  35.7518425  31.2604372   1.4638437
  35.9192827  32.1284608   1.8308908  35.5615594  31.4231653   0.5399726
  38.5093758  39.7221351  13.1304267  38.2094481  40.6246389  13.0220074
  38.1644818  39.4553534  13.9825420  31.9606240  36.1735147   9.1640971
  31.0356736  36.0411361   9.3718663  32.2090653  36.9529367   9.6610914
  41.9090902  32.2403891  10.8101704  41.0007779  32.1719299  10.5160465
  41.8578498  32.7175836  11.6383530  35.7307646  33.7162029   2.4485104
  35.6107271  34.1619080   3.2870584  35.0360234  34.0647347   1.8898642
  29.3215051  35.8168421   9.9984761  29.4507432  36.0702900  10.9124172
  28.6412502  36.4096129   9.6789416  33.4914538  46.4865671   6.0975235
  33.4138568  47.4373496   6.1763715  32.8876181  46.1411543   6.7550161
  43.7752548  30.4420329  12.5879578  43.1326929  30.7352862  11.9419373
  43.2707477  30.3273249  13.3932775  41.4292712  34.1883502   3.2765438
  42.3410568  34.4210889   3.1013135  40.9202359  34.7720547   2.7140516
  34.2378140  36.4678990  18.3154569  34.9792824  37.0064034  18.0389392
  33.5315125  37.0945278  18.4726120  39.7133480  38.6108130  16.9126730
  40.1216836  38.1690541  16.1681363  38.9910741  38.0360758  17.1660923
  36.0664550  33.5480737  14.2860287  36.9125745  33.9720150  14.4294936
  36.0063187  32.8914361  14.9798850  40.0362294  39.1709321  10.6679019
  39.4071157  39.3355035   9.9655087  39.6487956  39.5850930  11.4389983
  43.9151526  40.1063759   8.0223383  43.2302564  40.4862660   7.4720416
  43.9995375  40.7159085   8.7555331  39.2163995  31.2085105  15.9441461
  38.9724927  31.9627166  15.4075736  39.4923925  31.5870453  16.7788708
  41.1702458  37.7523718  14.6218726  41.3819353  38.3955478  13.9453107
  41.1232206  36.9186034  14.1540656  38.7728687  30.3641538  11.5255298
  37.9113166  30.6622792  11.8172036  38.7991121  30.5811937  10.5936331
  35.5890256  38.9083729   7.9329104  36.0528602  39.1871432   7.1433727
  35.3247054  38.0067173   7.7502195  32.4814337  38.4555210  10.8708867
  33.0515694  38.8842479  10.2326352  33.0722449  38.1737795  11.5693053
  34.5259142  35.0306881   4.7418669  35.2283186  35.4827925   5.2092596
  34.1939771  34.3890700   5.3698562  28.2684476  33.2890434  10.0435803
  27.4783530  33.5447962   9.5675913  28.7595724  34.1038772  10.1487843
  42.2848286  40.6295673  12.7941084  43.1065729  40.2275860  12.5123765
  42.2810689  40.5263907  13.7457199  30.2199222  33.6535013   7.0019280
  29.4230385  33.7653707   7.5202775  29.9924814  33.9921665   6.1360170
  36.0504889  40.1779716  14.9501794  36.1149322  40.6400124  15.7859966
  35.3415813  39.5477081  15.0784104  26.5522179  33.5420924  12.4750794
  26.8030218  34.4267934  12.7408370  27.0881728  33.3625526  11.7025885
  50.3754279  36.9734422   9.1426055  49.6217987  36.4041820   8.9870060
  50.5101820  36.9397086  10.0896690  35.7652907  41.8447824   4.8180774
  35.6298582  42.6899360   5.2465622  36.3062719  42.0467101   4.0546708
  29.2182304  39.3623262   5.3908700  29.7306825  40.1566512   5.5414264
  29.8705017  38.6649552   5.3242301  31.0277189  42.4789018   7.4731453
  31.2043817  43.4006983   7.2852437  31.8234022  42.1647437   7.9025833
  30.3129545  34.5253650  17.3493616  30.1983061  33.6238907  17.6500715
  29.4574063  34.7717347  16.9978432  32.1508504  43.9967192  13.4741795
  32.7015929  43.8684255  12.7018789  31.3119980  44.2962081  13.1236688
  39.4902621  42.7474190  16.9762518  39.4721097  43.5683071  16.4842787
  40.4122541  42.6228266  17.2012659  35.9475675  40.2618320  17.8186026
  36.4804012  39.5006608  17.5885334  35.4189757  39.9691972  18.5610181
  39.1145370  25.3678386  13.3479668  38.7709640  26.2580027  13.2718779
  39.4824333  25.1780043  12.4849253  27.1831221  37.6911916   6.1668270
  28.0206443  38.1008925   5.9501978  27.3609489  36.7511358   6.1368464
  39.0795653  35.3586997   1.8552103  38.5642277  36.1291601   2.0940490
  38.8072962  34.6852133   2.4785165  36.6642764  30.2036698   6.9137341
  35.8084360  29.8143548   6.7342980  37.0769716  30.2828658   6.0537127
  38.1941911  27.7383041  11.3128901  37.6906706  27.7013176  10.4996706
  38.4872518  28.6475784  11.3725558  34.4384797  27.8221771  10.3195083
  35.3037793  27.6264579   9.9600972  34.5062306  27.5932122  11.2464440
  44.0529927  38.1119351   3.7905277  43.2759370  37.7730511   3.3460439
  44.7321408  38.1171975   3.1160242  38.8681956  33.2314089   3.6811884
  38.5632092  33.5460238   4.5322027  39.8212398  33.3095509   3.7239217
  37.3128388  39.3904312   5.3304838  36.7849750  38.6557072   5.0178076
  36.8115891  40.1678989   5.0844807  42.2921234  37.5853333  10.4471885
  41.6344909  38.2752594  10.5352013  43.0961633  37.9749765  10.7905871
  32.0447116  30.0523979   7.6911450  32.6190868  29.8299160   6.9584643
  32.6318098  30.1212673   8.4440051  41.1026693  35.9397705   8.4975826
  41.6158575  36.5727697   8.9997536  41.7527917  35.3398901   8.1319186
  32.3716703  32.0828440   1.7107335  31.5354015  32.4203126   2.0316610
  32.2321472  31.9477419   0.7734472  34.3469783  26.9265227   6.4186519
  33.6934196  26.6114245   5.7943134  34.3050258  26.3040968   7.1446342
  35.4580988  37.2084523  -1.6660189  34.5508050  36.9773776  -1.4669040
  35.9552020  36.4122142  -1.4786207  38.3649067  45.9182030   1.2536497
  37.6910766  46.2213726   1.8621455  38.7514889  46.7211110   0.9041954
  37.5807524  33.4147161  10.7434167  36.6630085  33.6362108  10.5855855
  37.9967667  33.4893471   9.8845874  38.3642572  34.8138577   5.8736847
  39.1114391  35.3259974   5.5643969  38.6334161  34.4922629   6.7341241
  36.6369222  37.3097117   2.8563801  35.7280441  37.0256150   2.9536271
  36.6664306  37.7296196   1.9967108  41.8688489  40.9203707   6.6254969
  41.4150816  40.0794617   6.6820159  41.2382456  41.5565105   6.9629749
  40.8121409  31.8495693   7.8555636  40.0744166  31.3373079   8.1865879
  41.0648182  31.4096075   7.0438913  40.3121428  42.7580204   7.5604787
  40.6044403  43.3185261   6.8417153  40.8220049  43.0508765   8.3157946
  40.9133036  24.6271945   8.4497406  41.2191913  23.7669308   8.1623321
  41.6385641  25.2189565   8.2496400  27.2057392  35.0302632   6.8379004
  27.0081792  34.4371992   6.1130070  26.6504056  34.7254842   7.5554942
  35.1854116  34.9225738   8.9573597  35.2402726  33.9699574   8.8816073
  34.3745318  35.0785177   9.4414895  36.3345310  38.8505861   0.1951880
  35.8964739  38.1341720  -0.2642483  37.0755750  39.0781976  -0.3663029
  33.1246476  33.5402798   6.7163976  32.3114341  33.8396968   7.1229168
  33.6205470  33.1458487   7.4338458  35.2755054  43.5360555   8.6498240
  35.2331232  43.7621401   7.7206772  36.1917752  43.3023929   8.7984041
  38.7220687  34.0044622  15.5478869  39.0770075  34.2316095  16.4073335
  39.3692819  34.3362999  14.9256125  44.4518424  37.1263058   6.2528198
  44.3136323  37.3164654   5.3249388  44.0954643  37.8882441   6.7096250
  32.6160550  31.1121153  12.3325211  33.2559930  30.9709912  11.6348174
  31.7838081  30.8255667  11.9563813  44.4787804  39.1939585  11.2639470
  44.9124311  39.1014874  12.1122524  45.1919385  39.1697086  10.6259486
  33.3920854  40.4123584   8.4460203  34.1861453  39.9173904   8.2442778
  32.6812547  39.8841447   8.0827909  38.2115699  42.7941679  12.7972571
  38.2652721  43.3632616  13.5650286  37.3430480  42.9643564  12.4326608
  29.7003618  34.5566665   4.5219956  28.7701206  34.4951121   4.7389918
  29.7961090  34.0342618   3.7256597  29.6189167  31.0821478   7.1098197
  29.8795984  31.9966811   7.0007358  30.4406339  30.6145921   7.2594810
  45.3403353  39.2363286  13.7972355  45.5339244  40.1409096  14.0431630
  45.2403972  38.7770705  14.6310940  36.9939664  29.1221176  16.2962683
  36.3467579  29.8211126  16.2027159  37.7640680  29.5557320  16.6638931
  40.4018462  39.3870029  19.3713236  40.2503969  39.1580580  18.4543320
  40.3923142  40.3440630  19.3844581  37.1703799  36.9601941  14.3559502
  38.0995859  37.1113101  14.1828470  36.7494829  37.0485962  13.5008149
  35.9692130  40.9852606  12.1258040  35.8303216  40.6171390  12.9983978
  35.1806727  41.5000245  11.9541998  36.5640282  46.0861702   3.4683577
  36.7392038  45.6149745   4.2829199  35.8773070  46.7127468   3.6964837
  37.5197346  40.3634208   9.5146878  37.1847178  40.3234978  10.4104528
  37.0201291  39.6978924   9.0417288  31.4941589  35.7701838  15.0399459
  31.3561387  35.0382077  15.6410998  32.4046513  35.6810738  14.7583647
  40.4556537  37.7090243  -0.2116062  39.8385708  36.9837071  -0.3083010
  39.9873026  38.4699603  -0.5548988  34.1223890  35.4821798  14.5283139
  34.8323509  34.8414990  14.4869757  34.0793198  35.7334693  15.4509319
  42.1110669  42.4189151  17.4489718  42.0523215  41.7348371  16.7820301
  42.5130187  43.1608141  16.9970344  31.1301368  49.2351065  10.2423437
  31.3697966  49.8669589  10.9202455  30.2870564  48.8839105  10.5288796
  32.2455083  31.9275667  -1.0894758  31.3684549  31.8064468  -1.4532512
  32.7212836  31.1361745  -1.3415870  42.1128076  40.3828735  15.6803698
  41.2254855  40.0454657  15.8030096  42.6826627  39.6511766  15.9172463
  23.7657223  36.7152827   9.0046749  24.4528263  36.4014557   8.4167764
  23.6105352  37.6194191   8.7314000  28.5691945  31.6043023  13.4331773
  28.4850134  30.9968693  12.6982183  27.7474652  32.0952042  13.4341269
  35.6429229  45.0430187  12.6464941  35.5699401  45.8485159  13.1584245
  35.2006623  45.2422153  11.8212962  35.4319009  44.2801957   6.1567762
  34.6486531  44.8223638   6.2505987  36.1311754  44.7975937   6.5562003
  38.7415659  30.0896587   8.8001968  39.2384359  29.3366549   8.4803038
  37.9702641  30.1260903   8.2345177  46.5945417  35.7936952  10.4420259
  46.5835293  36.6761668  10.0714192  45.7262796  35.4408503  10.2474796
  38.1027913  44.9417021  14.8023099  38.8155885  45.5764486  14.7299001
  37.6117942  45.0380887  13.9863101  39.8245440  38.8468274   6.3740391
  38.8901719  38.9669737   6.2045095  40.0022108  37.9440741   6.1100401
  35.3250628  32.2313970   8.5273652  34.9548415  31.6785010   9.2154558
  35.8209720  31.6272103   7.9748652  43.2117991  34.6885593   6.9090425
  43.6778443  35.5213585   6.8350728  43.6625492  34.2230575   7.6135684
  33.1539827  42.6911465  15.6228670  33.8549286  43.3247948  15.7758064
  32.6834942  43.0326196  14.8624309  41.2794222  41.0329415   3.9076577
  41.5554066  40.9186009   4.8170451  40.4098721  40.6346899   3.8688750
  41.1834654  27.0566180  10.9481327  40.2697734  27.2870407  11.1163533
  41.6127755  27.1404624  11.7995359  40.9541112  35.2456072  13.4481221
  40.3012563  35.4931980  12.7933673  41.3321492  34.4320210  13.1143698
  37.9148286  45.2815765   7.5509391  38.0970681  44.4637421   8.0137143
  38.7381272  45.4983458   7.1134281  38.2490452  44.2083951   4.8124439
  38.7778218  43.6976405   4.1994601  38.5118671  43.8926481   5.6769972
  37.0028686  35.9875883  19.9347258  36.3269323  35.8870013  20.6049633
  37.8256319  35.8315097  20.3983255  28.7507545  42.2247820  12.5559773
  29.3360981  41.4791508  12.6887677  28.5532383  42.5351777  13.4396437
  31.6046200  45.2599067   7.5722215  30.9356575  45.7445195   7.0886255
  31.4659070  45.5068288   8.4865594  23.3425199  34.7953420  11.2764216
  23.3809299  34.2617011  12.0701334  22.8365492  34.2688626  10.6575193
  35.7451468  47.2942811  14.1704874  36.2969776  47.4574432  14.9353959
  36.0857662  47.8847249  13.4984898  26.9733777  33.5217522   4.3518147
  27.2687218  32.6128201   4.2985201  26.0721813  33.5005262   4.0299150
  38.8819856  45.2424786  11.1568556  38.7570995  44.4414526  10.6479501
  39.5398947  45.7370980  10.6682526  30.5028024  31.5973519  10.3345696
  29.7814610  32.2109487  10.1953169  31.2921280  32.1331284  10.2562342
  40.9454764  43.0433806  12.7848106  39.9985100  42.9239158  12.7126433
  41.2937537  42.1556304  12.8674367  28.7021618  31.2031620   4.4757473
  28.3734325  30.3228999   4.2932579  29.0560989  31.1479289   5.3633862
  37.9501197  42.8386523   8.9852458  37.8026160  41.9103230   9.1660028
  38.7754691  42.8606613   8.5009533  31.8163442  31.4904590   4.8432950
  32.1559514  32.0190511   4.1211559  32.2635562  31.8284996   5.6191517
  41.5535319  43.6615081  10.0717331  42.4781867  43.4557943   9.9341782
  41.3850623  43.4131483  10.9806672  35.1623354  26.9590953  12.7463341
  35.9849424  26.4851431  12.6242232  35.4061418  27.7381437  13.2462028
  33.8031589  29.9879211   3.0426243  34.5239951  30.3660464   2.5389960
  33.1796893  30.7068088   3.1461221  37.9462712  30.6924360   3.9784575
  38.1626326  31.5748998   3.6773404  37.4656779  30.3010574   3.2490217
  32.6861933  33.6510073  10.5555320  32.5406514  33.9650377  11.4479601
  32.2087137  34.2694974  10.0026219  34.5458316  30.6412621  10.6036210
  34.5319885  29.7453715  10.2668507  35.2630744  30.6483285  11.2374496
  36.3984447  31.0749962  12.6489337  36.1402224  31.9967032  12.6473667
  35.8669487  30.6780396  13.3389801  41.3430635  44.1800749   5.4279422
  41.5167513  43.6147171   4.6753275  41.8359527  44.9801644   5.2458912
  27.1607595  36.1915418  13.4942981  26.6161063  36.9675226  13.6263255
  28.0386945  36.5386222  13.3362103  33.9495212  29.5227002   5.8723780
  34.0711123  28.5943648   6.0714667  33.6597254  29.5365688   4.9602095
  36.8186402  27.2081912   9.0090499  36.8408099  27.2721245   8.0542479
  37.2354461  26.3686421   9.2031006  47.1970027  36.9437172   7.0469722
  47.6401173  36.1944497   6.6488845  46.3196537  36.9347308   6.6643454
  42.3305808  43.4967513   2.5276321  43.0256713  44.1174206   2.7463635
  42.6728958  42.6462864   2.8028698  27.9473617  35.3185314  16.3873138
  27.2055353  35.4667950  16.9737768  27.6266361  35.5793580  15.5239887
  44.2297231  40.9467219   4.0563651  44.7548555  41.2854491   3.3312971
  44.1419584  40.0114234   3.8726786  35.8917280  44.8601292  16.1853528
  36.2004406  44.6150439  17.0576228  36.6892762  45.0647931  15.6972398
  35.9137892  47.0139202   8.4158905  35.4742882  46.5215581   9.1091761
  36.6646009  46.4712170   8.1750980  28.3930231  43.2050743   8.4183533
  29.2188251  42.9054515   8.0382176  28.0424283  42.4358365   8.8673321
  33.3611764  42.5577211  10.4881206  32.7391773  41.8947916  10.1883434
  34.0316631  42.5838343   9.8054854  26.5938836  41.1237069   9.3772466
  25.7570744  40.6959244   9.1956467  26.5662481  41.3169513  10.3143257
  44.0389012  38.4292589  16.6747578  44.0887017  38.2642596  17.6163101
  43.9302935  37.5619848  16.2845459  32.9225271  41.1081134   3.9639667
  33.0713391  41.7916599   3.3106340  33.7291714  41.0886224   4.4789123
  41.3292775  34.4123517  17.9906885  42.2302637  34.2729982  17.6990882
  41.4040749  34.5777972  18.9305062  45.5407209  40.8489530  16.9189599
  45.2492017  41.2119511  17.7553060  44.9279340  40.1356539  16.7402931
  46.7402891  38.4142410   9.4392170  47.5749783  38.8532214   9.6029730
  46.8762020  37.9381063   8.6200415  43.7894397  35.9722145  15.3869657
  44.2648519  36.1649791  14.5788509  42.8659963  36.0281331  15.1413041
  30.6777904  37.1346312   4.9700736  30.4323946  36.2308642   5.1680946
  30.8473818  37.1363463   4.0280214  38.3674614  28.0069988  14.3525491
  38.8856558  28.7431015  14.0271980  38.0129746  28.3133982  15.1872250
  29.9473551  32.8674670   2.4686897  29.2542796  32.9419025   1.8126933
  29.7025303  32.1035013   2.9908414  38.6187208  24.4270271   9.8726388
  38.8988962  23.7593460  10.4986814  39.4037815  24.6199367   9.3601052
  36.4220676  43.6029265   1.4351414  35.8494643  44.2219452   0.9821886
  36.9953470  44.1528627   1.9691336  42.4896066  32.8487905  13.6197963
  43.4413489  32.9486003  13.6410187  42.3199517  32.0566174  14.1296047
  40.5110446  29.9343488  13.8057364  39.9160378  30.2148501  13.1103853
  40.2260142  30.4237389  14.5774105  39.6417936  43.8866415   2.5659996
  40.5748609  43.8211977   2.7692872  39.5541149  44.7222682   2.1074529
  42.2705953  43.2032285  -0.4736056  42.1919584  42.8692149   0.4199702
  43.0915620  43.6954053  -0.4744584  44.9684144  36.0694025  12.7340263
  44.9360464  35.1310025  12.9199946  45.5784768  36.1478061  12.0006088
  36.8067475  34.9390078  -1.2232533  37.7526580  34.8096286  -1.1544115
  36.4281720  34.2004740  -0.7463105  45.1178632  32.8605068  12.7798546
  44.6017681  32.0763525  12.5928475  46.0018581  32.5323785  12.9445065
  42.7789359  26.6046084   8.7394359  42.5814181  26.2961172   9.6237690
  43.3889065  27.3307723   8.8692288  50.7860694  37.1310032  11.8746299
  51.5164082  36.8695320  12.4354003  50.1767639  36.3938753  11.9148367
  48.8675991  35.2717894  12.4720751  48.1409155  35.1373859  11.8637242
  48.4523278  35.5794723  13.2777469  36.6906167  38.9907824  20.2368124
  37.6109177  39.1686423  20.4308170  36.6555750  38.0463869  20.0847823
  34.9910392  32.8640054  -1.2877648  34.0841847  32.5673167  -1.2114934
  35.2686373  32.5669872  -2.1543362  25.9088332  34.1846417   9.1621398
  25.5891117  33.3311726   8.8695772  25.3621761  34.3994996   9.9179366
  29.6868240  36.9008858  12.8790905  29.9054250  37.8325966  12.8978939
  30.0994014  36.5416833  13.6645709  36.6072458  27.4076944   4.8666593
  35.7973186  27.0624029   5.2421839  37.2956875  27.0984487   5.4554205
  38.5363006  26.4854991   6.4890890  39.0894045  26.9050444   7.1480913
  38.7733092  25.5590739   6.5313846  33.7609177  29.7226989  -1.1465669
  34.6228341  30.0481888  -0.8869852  33.9459521  28.9358485  -1.6592603
  25.7776592  37.8049329  11.1314520  25.0840064  37.3903282  10.6184474
  26.5249583  37.8469865  10.5347939  41.9141813  28.5955516   5.9969554
  41.3340482  29.2540320   5.6147607  41.6477746  27.7732860   5.5856972
  40.3645379  27.9960573   8.1990874  40.8645158  28.1077108   7.3905193
  41.0080987  27.6921626   8.8391683  27.6913335  37.7367583   9.0080535
  27.6684023  37.8355270   8.0562418  28.0013971  38.5832734   9.3297701
  30.3500713  39.7943738  13.1227149  31.3043966  39.7627680  13.0557081
  30.1513236  39.3334361  13.9377375  30.9400095  38.3644854  15.6897947
  31.7592984  38.8588932  15.7132784  31.2136903  37.4476822  15.6615514
  40.6966691  30.7555606   5.0525902  39.8092546  31.0405257   4.8346097
  41.1120680  30.5949369   4.2053179  44.0481227  30.7802127   8.7680242
  44.8241617  31.2698580   9.0404858  43.3229361  31.2060181   9.2252111
  46.4853786  31.4929746   9.8254182  47.0798277  31.2525482   9.1147490
  46.5580370  30.7736877  10.4527719  28.7050942  45.3363357  10.1397347
  28.5705410  44.5763758   9.5735345  28.2883004  46.0604257   9.6726136
  39.8409905  40.5200281  -0.8526078  40.5445755  40.7250283  -0.2368422
  39.1172553  41.0877043  -0.5876994  40.6707715  36.2710142   5.2676193
  40.6142916  36.7278693   4.4283825  41.2236057  35.5100827   5.0899035
  44.4812521  32.0599874   6.0926312  44.2249455  31.6596510   6.9234520
  43.8565389  32.7743668   5.9676451  48.7924859  34.7995947   8.5997603
  48.2324417  34.8689136   9.3729165  48.1868362  34.6236932   7.8797100
  31.8620067  46.2332674  10.3515790  31.7452452  47.1778107  10.2494480
  31.0412514  45.9306236  10.7401589  41.7496602  40.9582810   1.1972382
  42.5842206  40.5264008   1.0149857  41.5880945  40.7864824   2.1249277
  41.4042494  37.4614923   2.5628722  41.3491298  37.2959195   1.6217166
  40.7788549  38.1690956   2.7190911  26.1935009  32.6982988  16.3890144
  26.8393873  32.1881942  16.8777369  25.9852160  33.4351669  16.9633569
  34.7138620  26.9623032   2.1414040  34.7017289  27.9064872   2.2982311
  35.6062042  26.7793178   1.8473501  32.8874582  46.8860936  13.5671718
  33.7901828  46.9184546  13.8838213  32.6611952  45.9561387  13.5818054
  34.6428184  45.6391923  10.2281797  33.6923815  45.6393784  10.1146169
  34.9460670  44.8924657   9.7117831  38.5290739  23.5565809   6.3959977
  37.7623135  23.0024296   6.5416659  38.9401444  23.6287678   7.2574129
  50.3780877  51.4752461  11.2927559  51.0159287  51.3559208  10.5890899
  50.2601720  52.4233305  11.3515511  47.1870583  51.4279889  11.2289084
  46.8489095  51.3120954  10.3409619  48.0560352  51.0271054  11.2090090
  43.0457399  53.2815366   7.2185975  42.4822264  53.1905303   6.4502263
  42.9309794  52.4615270   7.6988467  47.6690366  52.5814741  17.1875289
  47.6579007  52.1867539  16.3155793  47.8311006  51.8480814  17.7809061
  40.5921831  54.7766557  10.0570195  41.3843123  54.4357382   9.6416495
  40.8318481  54.8861532  10.9772349  44.3897627  55.3651853  16.1354473
  44.0987493  56.2697484  16.0201140  45.0254612  55.4068380  16.8498543
  45.3153834  52.7428701  12.7255833  45.9117407  52.5184724  12.0112796
  45.3728806  52.0013447  13.3281281  49.9322146  49.2003915   8.3680767
  50.7185235  48.7823338   8.0171184  50.1960850  50.1050007   8.5362416
  55.3330573  49.1379148   9.2713746  56.0655745  48.5678365   9.5051575
  54.5769928  48.7500749   9.7120251  46.9506692  51.5606390   6.4677088
  46.5864900  51.0337011   7.1790010  47.8073808  51.1704859   6.2943574
  52.8555993  42.8500722  13.7308354  52.5239318  43.7196133  13.5069569
  52.2601606  42.5337006  14.4102385  49.3487513  55.0513268  13.1304267
  49.0488236  55.9538307  13.0220074  49.0038572  54.7845451  13.9825420
  42.7999994  51.5027065   9.1640971  41.8750491  51.3703279   9.3718663
  43.0484407  52.2821284   9.6610914  52.7484656  47.5695808  10.8101704
  51.8401534  47.5011217  10.5160465  52.6972252  48.0467753  11.6383530
  40.1608805  51.1460339   9.9984761  40.2901186  51.3994818  10.9124172
  39.4806256  51.7388047   9.6789416  46.8225522  48.9885454  18.7536602
  46.0458856  49.5479374  18.7439466  47.4616085  49.4742237  19.2751472
  54.6146303  45.7712247  12.5879578  53.9720683  46.0644780  11.9419373
  54.1101231  45.6565167  13.3932775  45.0771894  51.7970907  18.3154569
  45.8186579  52.3355951  18.0389392  44.3708880  52.4237196  18.4726120
  50.5527234  53.9400048  16.9126730  50.9610590  53.4982458  16.1681363
  49.8304496  53.3652675  17.1660923  46.9058304  48.8772655  14.2860287
  47.7519499  49.3012068  14.4294936  46.8456942  48.2206279  14.9798850
  50.8756049  54.5001238  10.6679019  50.2464911  54.6646953   9.9655087
  50.4881711  54.9142848  11.4389983  50.0557749  46.5377023  15.9441461
  49.8118681  47.2919083  15.4075736  50.3317680  46.9162371  16.7788708
  52.0096212  53.0815635  14.6218726  52.2213107  53.7247395  13.9453107
  51.9625960  52.2477952  14.1540656  49.6122441  45.6933456  11.5255298
  48.7506920  45.9914710  11.8172036  49.6384876  45.9103855  10.5936331
  43.3208092  53.7847128  10.8708867  43.8909449  54.2134396  10.2326352
  43.9116204  53.5029713  11.5693053  45.3652897  50.3598799   4.7418669
  46.0676940  50.8119843   5.2092596  45.0333525  49.7182618   5.3698562
  43.8133258  48.9510556  19.1169879  43.1831919  49.6326836  19.3505275
  43.7069346  48.8393637  18.1723017  39.1078231  48.6182352  10.0435803
  38.3177285  48.8739880   9.5675913  39.5989478  49.4330689  10.1487843
  53.1242040  55.9587591  12.7941084  53.9459484  55.5567778  12.5123765
  53.1204443  55.8555825  13.7457199  41.0592976  48.9826931   7.0019280
  40.2624139  49.0945625   7.5202775  40.8318568  49.3213583   6.1360170
  46.8898644  55.5071634  14.9501794  46.9543076  55.9692041  15.7859966
  46.1809568  54.8768999  15.0784104  37.3915934  48.8712842  12.4750794
  37.6423972  49.7559852  12.7408370  37.9275482  48.6917444  11.7025885
  40.0576059  54.6915180   5.3908700  40.5700579  55.4858430   5.5414264
  40.7098772  53.9941470   5.3242301  46.0081962  44.6689200  19.0715386
  46.7491675  45.2696354  18.9919849  46.2399885  43.9266838  18.5133429
  41.1523300  49.8545568  17.3493616  41.0376815  48.9530825  17.6500715
  40.2967818  50.1009264  16.9978432  48.2315138  57.7963308  18.9481117
  47.7878992  57.0099687  18.6302021  48.8932351  57.9842459  18.2825007
  42.9902259  59.3259110  13.4741795  43.5409684  59.1976173  12.7018789
  42.1513735  59.6253999  13.1236688  50.3296376  58.0766108  16.9762518
  50.3114851  58.8974989  16.4842787  51.2516296  57.9520183  17.2012659
  46.7869430  55.5910237  17.8186026  47.3197767  54.8298526  17.5885334
  46.2583511  55.2983889  18.5610181  49.9539125  40.6970303  13.3479668
  49.6103394  41.5871945  13.2718779  50.3218087  40.5071961  12.4849253
  38.0224975  53.0203834   6.1668270  38.8600197  53.4300842   5.9501978
  38.2003243  52.0803276   6.1368464  47.5036519  45.5328615   6.9137341
  46.6478115  45.1435466   6.7342980  47.9163470  45.6120576   6.0537127
  49.0335665  43.0674959  11.3128901  48.5300461  43.0305094  10.4996706
  49.3266272  43.9767701  11.3725558  45.2778551  43.1513688  10.3195083
  46.1431548  42.9556497   9.9600972  45.3456060  42.9224040  11.2464440
  53.1314989  52.9145250  10.4471885  52.4738663  53.6044512  10.5352013
  53.9355388  53.3041682  10.7905871  42.8840870  45.3815896   7.6911450
  43.4584622  45.1591078   6.9584643  43.4711853  45.4504591   8.4440051
  51.9420447  51.2689623   8.4975826  52.4552329  51.9019615   8.9997536
  52.5921671  50.6690819   8.1319186  45.1863538  42.2557145   6.4186519
  44.5327950  41.9406162   5.7943134  45.1444012  41.6332886   7.1446342
  48.4201278  48.7439079  10.7434167  47.5023840  48.9654026  10.5855855
  48.8361422  48.8185389   9.8845874  51.6515163  47.1787611   7.8555636
  50.9137920  46.6664997   8.1865879  51.9041937  46.7387992   7.0438913
  51.7526791  39.9563863   8.4497406  52.0585667  39.0961226   8.1623321
  52.4779395  40.5481483   8.2496400  38.0451147  50.3594549   6.8379004
  37.8475546  49.7663910   6.1130070  37.4897811  50.0546759   7.5554942
  46.0247870  50.2517656   8.9573597  46.0796480  49.2991492   8.8816073
  45.2139072  50.4077095   9.4414895  43.9640230  48.8694715   6.7163976
  43.1508096  49.1688886   7.1229168  44.4599224  48.4750404   7.4338458
  49.5614442  49.3336540  15.5478869  49.9163830  49.5608013  16.4073335
  50.2086573  49.6654917  14.9256125  43.4554305  46.4413071  12.3325211
  44.0953684  46.3001830  11.6348174  42.6231835  46.1547584  11.9563813
  44.2314609  55.7415501   8.4460203  45.0255207  55.2465821   8.2442778
  43.5206301  55.2133364   8.0827909  49.0509453  58.1233597  12.7972571
  49.1046476  58.6924533  13.5650286  48.1824235  58.2935482  12.4326608
  40.5397372  49.8858583   4.5219956  39.6094960  49.8243039   4.7389918
  40.6354844  49.3634536   3.7256597  40.4582921  46.4113396   7.1098197
  40.7189739  47.3258729   7.0007358  41.2800094  45.9437838   7.2594810
  41.9307847  47.8251153  14.2797022  42.6030900  47.6168515  13.6309671
  41.1037633  47.6273239  13.8402254  56.1797108  54.5655203  13.7972355
  56.3732998  55.4701014  14.0431630  56.0797726  54.1062623  14.6310940
  47.8333419  44.4513094  16.2962683  47.1861334  45.1503044  16.2027159
  48.6034434  44.8849238  16.6638931  51.2412217  54.7161946  19.3713236
  51.0897723  54.4872498  18.4543320  51.2316896  55.6732548  19.3844581
  48.0097553  52.2893859  14.3559502  48.9389613  52.4405019  14.1828470
  47.5888583  52.3777880  13.5008149  46.8085885  56.3144523  12.1258040
  46.6696971  55.9463308  12.9983978  46.0200481  56.8292163  11.9541998
  48.3591100  55.6926126   9.5146878  48.0240933  55.6526896  10.4104528
  47.8595046  55.0270842   9.0417288  42.3335344  51.0993756  15.0399459
  42.1955142  50.3673995  15.6410998  43.2440267  51.0102656  14.7583647
  44.9617645  50.8113715  14.5283139  45.6717263  50.1706908  14.4869757
  44.9186953  51.0626610  15.4509319  52.9504423  57.7481069  17.4489718
  52.8916969  57.0640289  16.7820301  53.3523942  58.4900059  16.9970344
  43.6746579  47.7978933  16.3478778  43.1383936  47.3469672  17.0000374
  43.0863287  47.9324842  15.6049242  52.9521831  55.7120653  15.6803698
  52.0648609  55.3746574  15.8030096  53.5220382  54.9803684  15.9172463
  34.6050978  52.0444744   9.0046749  35.2922018  51.7306474   8.4167764
  34.4499106  52.9486109   8.7314000  39.4085700  46.9334941  13.4331773
  39.3243889  46.3260611  12.6982183  38.5868406  47.4243959  13.4341269
  46.4822984  60.3722105  12.6464941  46.4093155  61.1777077  13.1584245
  46.0400377  60.5714071  11.8212962  49.5809414  45.4188505   8.8001968
  50.0778113  44.6658467   8.4803038  48.8096395  45.4552821   8.2345177
  57.4339171  51.1228870  10.4420259  57.4229047  52.0053585  10.0714192
  56.5656551  50.7700421  10.2474796  48.9421667  60.2708939  14.8023099
  49.6549640  60.9056404  14.7299001  48.4511696  60.3672805  13.9863101
  46.1644382  47.5605887   8.5273652  45.7942170  47.0076928   9.2154558
  46.6603475  46.9564021   7.9748652  43.9933581  58.0203383  15.6228670
  44.6943041  58.6539865  15.7758064  43.5228696  58.3618114  14.8624309
  52.0228408  42.3858098  10.9481327  51.1091488  42.6162325  11.1163533
  52.4521510  42.4696542  11.7995359  51.7934867  50.5747990  13.4481221
  51.1406317  50.8223897  12.7933673  52.1715247  49.7612128  13.1143698
  47.8422440  51.3167801  19.9347258  47.1663077  51.2161930  20.6049633
  48.6650074  51.1607015  20.3983255  39.5901299  57.5539738  12.5559773
  40.1754736  56.8083425  12.6887677  39.3926138  57.8643694  13.4396437
  34.1818954  50.1245338  11.2764216  34.2203053  49.5908928  12.0701334
  33.6759247  49.5980543  10.6575193  46.5845223  62.6234728  14.1704874
  47.1363531  62.7866350  14.9353959  46.9251416  63.2139166  13.4984898
  41.5609716  44.9709878  14.7726758  41.6251043  45.8324709  14.3604156
  41.4976836  44.3583880  14.0399117  51.4356097  57.4495986  20.0253528
  51.9796001  58.0625944  19.5308483  50.8542942  58.0075564  20.5420541
  37.8127531  48.8509440   4.3518147  38.1080972  47.9420118   4.2985201
  36.9115567  48.8297179   4.0299150  41.3421778  46.9265436  10.3345696
  40.6208364  47.5401404  10.1953169  42.1315034  47.4623201  10.2562342
  51.7848519  58.3725724  12.7848106  50.8378854  58.2531075  12.7126433
  52.1331292  57.4848222  12.8674367  44.1448092  44.2619863  16.6086348
  44.6682494  44.5082160  17.3712657  43.9260425  45.0939898  16.1889485
  39.5415373  46.5323538   4.4757473  39.2128079  45.6520916   4.2932579
  39.8954744  46.4771206   5.3633862  42.6557196  46.8196507   4.8432950
  42.9953269  47.3482429   4.1211559  43.1029317  47.1576913   5.6191517
  45.3500637  45.2033558  14.2936018  45.0097457  44.4041371  14.6956698
  44.6439643  45.5035269  13.7212852  46.0017109  42.2882871  12.7463341
  46.8243178  41.8143349  12.6242232  46.2455172  43.0673354  13.2462028
  44.6425343  45.3171129   3.0426243  45.3633706  45.6952382   2.5389960
  44.0190647  46.0360006   3.1461221  48.7856466  46.0216278   3.9784575
  49.0020081  46.9040916   3.6773404  48.3050533  45.6302491   3.2490217
  43.5255688  48.9801991  10.5555320  43.3800268  49.2942294  11.4479601
  43.0480891  49.5986891  10.0026219  45.3852070  45.9704539  10.6036210
  45.3713639  45.0745632  10.2668507  46.1024499  45.9775203  11.2374496
  47.2378201  46.4041879  12.6489337  46.9795979  47.3258950  12.6473667
  46.7063242  46.0072314  13.3389801  38.0001350  51.5207336  13.4942981
  37.4554818  52.2967144  13.6263255  38.8780700  51.8678140  13.3362103
  44.7888966  44.8518919   5.8723780  44.9104878  43.9235566   6.0714667
  44.4991009  44.8657605   4.9602095  47.6580157  42.5373830   9.0090499
  47.6801854  42.6013163   8.0542479  48.0748216  41.6978339   9.2031006
  38.7867372  50.6477232  16.3873138  38.0449108  50.7959867  16.9737768
  38.4660116  50.9085497  15.5239887  46.7311034  60.1893210  16.1853528
  47.0398161  59.9442357  17.0576228  47.5286516  60.3939849  15.6972398
  39.2323985  58.5342661   8.4183533  40.0582005  58.2346432   8.0382176
  38.8818037  57.7650283   8.8673321  44.2005518  57.8869129  10.4881206
  43.5785528  57.2239834  10.1883434  44.8710385  57.9130261   9.8054854
  37.4332590  56.4528987   9.3772466  36.5964499  56.0251161   9.1956467
  37.4056236  56.6461430  10.3143257  54.7584892  56.9092040  19.3614849
  53.9680435  56.8916179  18.8219349  54.5218246  57.4480334  20.1163886
  54.8782767  53.7584506  16.6747578  54.9280772  53.5934514  17.6163101
  54.7696690  52.8911765  16.2845459  52.1686529  49.7415434  17.9906885
  53.0696392  49.6021899  17.6990882  52.2434504  49.9069889  18.9305062
  46.5029334  47.1182289  16.8360071  45.6332644  47.4115855  16.5642659
  46.7388815  47.7022734  17.5567335  56.3800963  56.1781448  16.9189599
  56.0885772  56.5411428  17.7553060  55.7673095  55.4648456  16.7402931
  54.6288152  51.3014063  15.3869657  55.1042273  51.4941709  14.5788509
  53.7053717  51.3573248  15.1413041  41.5171658  52.4638230   4.9700736
  41.2717700  51.5600560   5.1680946  41.6867573  52.4655380   4.0280214
  49.2068368  43.3361906  14.3525491  49.7250312  44.0722933  14.0271980
  48.8523501  43.6425899  15.1872250  40.7867306  48.1966587   2.4686897
  40.0936551  48.2710942   1.8126933  40.5419058  47.4326931   2.9908414
  49.4580962  39.7562189   9.8726388  49.7382716  39.0885378  10.4986814
  50.2431569  39.9491284   9.3601052  53.3289821  48.1779823  13.6197963
  54.2807244  48.2777920  13.6410187  53.1593271  47.3858091  14.1296047
  51.3504200  45.2635406  13.8057364  50.7554132  45.5440419  13.1103853
  51.0653897  45.7529307  14.5774105  55.8077898  51.3985942  12.7340263
  55.7754219  50.4601943  12.9199946  56.4178522  51.4769979  12.0006088
  55.9572387  48.1896986  12.7798546  55.4411436  47.4055442  12.5928475
  56.8412335  47.8615702  12.9445065  53.6183114  41.9338001   8.7394359
  53.4207935  41.6253090   9.6237690  54.2282819  42.6599640   8.8692288
  59.7069745  50.6009812  12.4720751  58.9802909  50.4665777  11.8637242
  59.2917032  50.9086640  13.2777469  47.5299922  54.3199741  20.2368124
  48.4502931  54.4978340  20.4308170  47.4949505  53.3755787  20.0847823
  36.7482087  49.5138335   9.1621398  36.4284871  48.6603643   8.8695772
  36.2015515  49.7286913   9.9179366  40.5261994  52.2300776  12.8790905
  40.7448004  53.1617884  12.8978939  40.9387768  51.8708751  13.6645709
  47.4466212  42.7368861   4.8666593  46.6366941  42.3915946   5.2421839
  48.1350629  42.4276405   5.4554205  49.3756761  41.8146908   6.4890890
  49.9287799  42.2342362   7.1480913  49.6126847  40.8882656   6.5313846
  36.6170347  53.1341247  11.1314520  35.9233818  52.7195199  10.6184474
  37.3643338  53.1761783  10.5347939  52.7535568  43.9247433   5.9969554
  52.1734237  44.5832237   5.6147607  52.4871500  43.1024778   5.5856972
  51.2039134  43.3252491   8.1990874  51.7038912  43.4369026   7.3905193
  51.8474742  43.0213544   8.8391683  45.2621130  51.2331121  21.0858715
  44.7788211  52.0331481  21.2922604  45.3482069  51.2439066  20.1326159
  38.5307089  53.0659500   9.0080535  38.5077778  53.1647188   8.0562418
  38.8407726  53.9124651   9.3297701  41.1894467  55.1235655  13.1227149
  42.1437721  55.0919598  13.0557081  40.9906991  54.6626279  13.9377375
  41.7793849  53.6936771  15.6897947  42.5986738  54.1880850  15.7132784
  42.0530657  52.7768740  15.6615514  54.8874982  46.1094045   8.7680242
  55.6635372  46.5990497   9.0404858  54.1623116  46.5352099   9.2252111
  57.3247540  46.8221664   9.8254182  57.9192031  46.5817400   9.1147490
  57.3974124  46.1028795  10.4527719  39.5444696  60.6655275  10.1397347
  39.4099164  59.9055676   9.5735345  39.1276758  61.3896175   9.6726136
  42.7013822  61.5624592  10.3515790  42.5846206  62.5070024  10.2494480
  41.8806268  61.2598153  10.7401589  37.0328764  48.0274905  16.3890144
  37.6787627  47.5173859  16.8777369  36.8245915  48.7643587  16.9633569
  49.5582156  55.0955753  21.8882284  50.4273315  55.2696405  21.5268919
  49.0788907  55.9150170  21.7658014  45.5532374  42.2914950   2.1414040
  45.5411044  43.2356790   2.2982311  46.4455796  42.1085095   1.8473501
  43.7268336  62.2152854  13.5671718  44.6295583  62.2476464  13.8838213
  43.5005706  61.2853305  13.5818054  49.3684494  38.8857727   6.3959977
  48.6016889  38.3316213   6.5416659  49.7795199  38.9579595   7.2574129
  57.6619277  64.3177372  18.7536602  56.8852611  64.8771292  18.7439466
  58.3009840  64.8034155  19.2751472  54.6527013  64.2802473  19.1169879
  54.0225673  64.9618754  19.3505275  54.5463101  64.1685555  18.1723017
  53.9307755  58.5823239  21.4795130  53.5374701  58.0289438  22.1542774
  54.7473896  58.8933818  21.8701647  56.8475716  59.9981118  19.0715386
  57.5885430  60.5988271  18.9919849  57.0793639  59.2558756  18.5133429
  51.9917054  65.1837485  17.3493616  51.8770570  64.2822743  17.6500715
  51.1361572  65.4301182  16.9978432  58.6727173  59.7805012  16.2962683
  58.0255088  60.4794961  16.2027159  59.4428189  60.2141156  16.6638931
  54.5140333  63.1270851  16.3478778  53.9777690  62.6761589  17.0000374
  53.9257042  63.2616760  15.6049242  50.2479454  62.2626859  13.4331773
  50.1637643  61.6552528  12.6982183  49.4262161  62.7535877  13.4341269
  58.6816194  66.6459719  19.9347258  58.0056832  66.5453848  20.6049633
  59.5043828  66.4898932  20.3983255  52.4003471  60.3001796  14.7726758
  52.4644797  61.1616627  14.3604156  52.3370591  59.6875798  14.0399117
  51.8755743  62.3724928  18.4199793  52.5027782  61.9902006  19.0337317
  51.0183662  62.1539130  18.7855485  54.9841846  59.5911781  16.6086348
  55.5076248  59.8374077  17.3712657  54.7654180  60.4231815  16.1889485
  49.6261126  65.9769150  16.3873138  48.8842862  66.1251785  16.9737768
  49.3053870  66.2377415  15.5239887  55.1123800  61.6942834  20.0813712
  55.1611956  62.5704957  19.6991482  55.6546315  61.1520228  19.5085355
  57.3423089  62.4474207  16.8360071  56.4726398  62.7407773  16.5642659
  57.5782569  63.0314652  17.5567335  56.2383614  63.1325900  22.2693654
  56.1380341  64.0820257  22.2005745  56.0205156  62.8044138  21.3969724
  56.1014884  66.5623038  21.0858715  55.6181966  67.3623398  21.2922604
  56.1875823  66.5730983  20.1326159  47.8722518  63.3566823  16.3890144
  48.5181382  62.8465777  16.8777369  47.6639669  64.0935505  16.9633569
  52.2120009  60.5034440  20.4865158  53.0751471  60.1471245  20.6968483
  51.6385420  60.1648335  21.1740562  37.3921384  19.4733513   5.6726423
  36.9485239  18.6869892   5.3547328  38.0538598  19.6612663   5.0070314
  39.4902623  19.7536313   3.7007824  39.4721098  20.5745194   3.2088094
  40.4122543  19.6290388   3.9257966  35.9475677  17.2680442   4.5431333
  36.4804013  16.5068731   4.3130641  35.4189758  16.9754094   5.2855487
  45.3403355  16.2425408   0.5217662  45.5339245  17.1471219   0.7676937
  45.2403973  15.7832827   1.3556247  40.4018463  16.3932151   6.0958543
  40.2503970  16.1642703   5.1788626  40.3923143  17.3502753   6.1089888
  42.1110670  19.4251274   4.1735025  42.0523216  18.7410494   3.5065608
  42.5130188  20.1670264   3.7215650  42.1128077  17.3890858   2.4049004
  41.2254856  17.0516779   2.5275403  42.6826628  16.6573889   2.6417770
  38.1027914  21.9479144   1.5268406  38.8155886  22.5826609   1.4544308
  37.6117943  22.0443010   0.7108408  37.0028687  12.9938006   6.6592564
  36.3269324  12.8932135   7.3294940  37.8256321  12.8377220   7.1228562
  35.7451470  24.3004933   0.8950180  36.2969778  24.4636555   1.6599266
  36.0857663  24.8909371   0.2230205  40.5962344  19.1266191   6.7498835
  41.1402248  19.7396149   6.2553790  40.0149189  19.6845769   7.2665848
  35.8917281  21.8663415   2.9098835  36.2004407  21.6212562   3.7821534
  36.6892763  22.0710053   2.4217705  43.9191138  18.5862245   6.0860156
  43.1286682  18.5686384   5.5464655  43.6824493  19.1250539   6.8409193
  44.0389013  15.4354711   3.3992885  44.0887018  15.2704719   4.3408407
  43.9302937  14.5681970   3.0090765  45.5407210  17.8551653   3.6434906
  45.2492019  18.2181633   4.4798367  44.9279341  17.1418661   3.4648238
  36.6906169  15.9969946   6.9613430  37.6109178  16.1748545   7.1553477
  36.6555752  15.0525992   6.8093130  34.4227377  12.9101326   7.8104022
  33.9394458  13.7101686   8.0167911  34.5088316  12.9209270   6.8571466
  38.7188403  16.7725958   8.6127591  39.5879562  16.9466610   8.2514226
  38.2395154  17.5920375   8.4903320  50.3780878  28.4814584  -1.9827134
  51.0159288  28.3621331  -2.6863794  50.2601721  29.4295428  -1.9239182
  47.1870585  28.4342012  -2.0465609  46.8489096  28.3183076  -2.9345075
  48.0560353  28.0333177  -2.0664603  47.6690368  29.5876863   3.9120596
  47.6579008  29.1929662   3.0401100  47.8311007  28.8542936   4.5054367
  40.5921832  31.7828680  -3.2184498  41.3843124  31.4419504  -3.6338199
  40.8318482  31.8923655  -2.2982345  44.3897629  32.3713975   2.8599780
  44.0987495  33.2759606   2.7446446  45.0254613  32.4130503   3.5743850
  45.3153836  29.7490824  -0.5498860  45.9117408  29.5246846  -1.2641897
  45.3728807  29.0075569   0.0526588  46.9506694  28.5668512  -6.8077605
  46.5864901  28.0399133  -6.0964684  47.8073810  28.1766981  -6.9811120
  49.3487514  32.0575391  -0.1450426  49.0488237  32.9600430  -0.2534619
  49.0038573  31.7907574   0.7070727  42.7999995  28.5089188  -4.1113722
  41.8750492  28.3765402  -3.9036030  43.0484409  29.2883407  -3.6143779
  40.1608806  28.1522461  -3.2769933  40.2901188  28.4056940  -2.3630521
  39.4806258  28.7450169  -3.5965278  46.8225523  25.9947577   5.4781908
  46.0458857  26.5541497   5.4684773  47.4616086  26.4804360   5.9996778
  45.0771896  28.8033030   5.0399875  45.8186580  29.3418074   4.7634699
  44.3708881  29.4299319   5.1971427  50.5527235  30.9462170   3.6372037
  50.9610591  30.5044581   2.8926669  49.8304497  30.3714798   3.8906230
  46.9058305  25.8834777   1.0105594  47.7519501  26.3074191   1.1540243
  46.8456943  25.2268402   1.7044157  50.8756050  31.5063361  -2.6075674
  50.2464912  31.6709075  -3.3099606  50.4881712  31.9204971  -1.8364710
  50.0557751  23.5439146   2.6686767  49.8118683  24.2981206   2.1321043
  50.3317681  23.9224493   3.5034014  52.0096214  30.0877758   1.3464033
  52.2213109  30.7309518   0.6698414  51.9625962  29.2540074   0.8785963
  49.6122442  22.6995579  -1.7499395  48.7506921  22.9976832  -1.4582657
  49.6384877  22.9165977  -2.6818362  43.3208093  30.7909251  -2.4045826
  43.8909450  31.2196519  -3.0428341  43.9116205  30.5091835  -1.7061640
  43.8133259  25.9572678   5.8415185  43.1831920  26.6388959   6.0750582
  43.7069347  25.8455760   4.8968324  53.1242041  32.9649713  -0.4813610
  53.9459485  32.5629901  -0.7630928  53.1204444  32.8617948   0.4702506
  46.8898645  32.5133757   1.6747101  46.9543077  32.9754164   2.5105273
  46.1809569  31.8831122   1.8029411  37.3915935  25.8774965  -0.8003900
  37.6423973  26.7621975  -0.5346324  37.9275483  25.6979566  -1.5728808
  43.0914002  20.2593444   8.2040436  42.6980948  19.7059643   8.8788081
  43.9080143  20.5704022   8.5946954  46.0081963  21.6751323   5.7960693
  46.7491677  22.2758476   5.7165155  46.2399886  20.9328961   5.2378735
  41.1523301  26.8607690   4.0738923  41.0376816  25.9592948   4.3746022
  40.2967819  27.1071387   3.7223739  48.2315139  34.8025431   5.6726423
  47.7878993  34.0161809   5.3547328  48.8932353  34.9904581   5.0070314
  42.9902260  36.3321232   0.1987102  43.5409685  36.2038296  -0.5735904
  42.1513736  36.6316121  -0.1518005  50.3296377  35.0828231   3.7007824
  50.3114852  35.9037112   3.2088094  51.2516297  34.9582306   3.9257966
  46.7869431  32.5972360   4.5431333  47.3197768  31.8360648   4.3130641
  46.2583512  32.3046012   5.2855487  49.0335667  20.0737081  -1.9625792
  48.5300462  20.0367216  -2.7757987  49.3266273  20.9829824  -1.9029136
  53.1314990  29.9207373  -2.8282809  52.4738664  30.6106634  -2.7402680
  53.9355389  30.3103805  -2.4848822  48.4201280  25.7501201  -2.5320527
  47.5023841  25.9716148  -2.6898839  48.8361423  25.8247512  -3.3908819
  46.0247872  27.2579778  -4.3181097  46.0796481  26.3053615  -4.3938620
  45.2139074  27.4139217  -3.8339798  49.5614443  26.3398662   2.2724176
  49.9163831  26.5670136   3.1318642  50.2086574  26.6717039   1.6501431
  43.4554306  23.4475194  -0.9429483  44.0953686  23.3063953  -1.6406520
  42.6231837  23.1609707  -1.3190881  44.2314610  32.7477624  -4.8294490
  45.0255209  32.2527944  -5.0311915  43.5206302  32.2195487  -5.1926785
  49.0509455  35.1295719  -0.4782123  49.1046477  35.6986656   0.2895593
  48.1824236  35.2997605  -0.8428086  41.9307848  24.8313276   1.0042328
  42.6030901  24.6230638   0.3554977  41.1037634  24.6335362   0.5647561
  56.1797109  31.5717326   0.5217662  56.3732999  32.4763137   0.7676937
  56.0797727  31.1124745   1.3556247  47.8333420  21.4575217   3.0207989
  47.1861335  22.1565166   2.9272466  48.6034435  21.8911361   3.3884238
  51.2412218  31.7224069   6.0958543  51.0897724  31.4934620   5.1788626
  51.2316897  32.6794670   6.1089888  48.0097554  29.2955982   1.0804809
  48.9389614  29.4467141   0.9073776  47.5888584  29.3840002   0.2253456
  46.8085886  33.3206646  -1.1496653  46.6696972  32.9525430  -0.2770715
  46.0200482  33.8354285  -1.3212695  48.3591101  32.6988249  -3.7607816
  48.0240934  32.6589019  -2.8650166  47.8595047  32.0332965  -4.2337405
  42.3335345  28.1055879   1.7644766  42.1955143  27.3736117   2.3656305
  43.2440269  28.0164779   1.4828953  44.9617646  27.8175838   1.2528445
  45.6717264  27.1769030   1.2115064  44.9186954  28.0688733   2.1754626
  52.9504425  34.7543191   4.1735025  52.8916971  34.0702411   3.5065608
  53.3523943  35.4962181   3.7215650  43.6746580  24.8041056   3.0724085
  43.1383937  24.3531794   3.7245681  43.0863288  24.9386965   2.3294549
  52.9521832  32.7182775   2.4049004  52.0648611  32.3808697   2.5275403
  53.5220383  31.9865806   2.6417770  39.4085701  23.9397064   0.1577079
  39.3243890  23.3322733  -0.5772511  38.5868407  24.4306082   0.1586576
  46.4822985  37.3784228  -0.6289753  46.4093157  38.1839199  -0.1170448
  46.0400378  37.5776193  -1.4541731  48.9421669  37.2771062   1.5268406
  49.6549641  37.9118526   1.4544308  48.4511697  37.3734928   0.7108408
  43.9933582  35.0265505   2.3473977  44.6943042  35.6601988   2.5003371
  43.5228697  35.3680237   1.5869616  51.7934868  27.5810113   0.1726527
  51.1406318  27.8286020  -0.4821020  52.1715248  26.7674251  -0.1610995
  47.8422441  28.3229924   6.6592564  47.1663078  28.2224053   7.3294940
  48.6650075  28.1669137   7.1228562  39.5901300  34.5601860  -0.7194920
  40.1754737  33.8145548  -0.5867016  39.3926139  34.8705817   0.1641743
  46.5845224  39.6296851   0.8950180  47.1363532  39.7928473   1.6599266
  46.9251418  40.2201289   0.2230205  41.5609717  21.9772001   1.4972065
  41.6251044  22.8386832   1.0849463  41.4976838  21.3646003   0.7644424
  41.0361990  24.0495133   5.1445099  41.6634029  23.6672211   5.7582624
  40.1789909  23.8309335   5.5100792  51.4356098  34.4558109   6.7498835
  51.9796002  35.0688067   6.2553790  50.8542943  35.0137687   7.2665848
  51.7848520  35.3787847  -0.4906587  50.8378855  35.2593198  -0.5628261
  52.1331293  34.4910345  -0.4080326  44.1448093  21.2681986   3.3331654
  44.6682495  21.5144282   4.0957964  43.9260426  22.1002020   2.9134792
  45.3500638  22.2095681   1.0181325  45.0097459  21.4103494   1.4202005
  44.6439644  22.5097392   0.4458158  46.0017110  19.2944993  -0.5291352
  46.8243179  18.8205471  -0.6512462  46.2455174  20.0735477  -0.0292666
  43.5255689  25.9864114  -2.7199373  43.3800270  26.3004417  -1.8275092
  43.0480892  26.6049014  -3.2728475  47.2378202  23.4104002  -0.6265356
  46.9795980  24.3321073  -0.6281026  46.7063243  23.0134436   0.0635108
  38.0001351  28.5269458   0.2188288  37.4554819  29.3029266   0.3508562
  38.8780701  28.8740263   0.0607409  38.7867373  27.6539354   3.1118445
  38.0449109  27.8021990   3.6983075  38.4660117  27.9147620   2.2485194
  46.7311035  37.1955333   2.9098835  47.0398162  36.9504479   3.7821534
  47.5286517  37.4001971   2.4217705  39.2323986  35.5404783  -4.8571161
  40.0582006  35.2408555  -5.2372517  38.8818038  34.7712406  -4.4081372
  44.2005520  34.8931251  -2.7873487  43.5785529  34.2301956  -3.0871259
  44.8710387  34.9192383  -3.4699839  37.4332592  33.4591110  -3.8982227
  36.5964500  33.0313284  -4.0798226  37.4056237  33.6523553  -2.9611436
  44.2730047  23.3713039   6.8059019  44.3218203  24.2475162   6.4236789
  44.8152561  22.8290432   6.2330662  54.7584893  33.9154163   6.0860156
  53.9680437  33.8978301   5.5464655  54.5218247  34.4542456   6.8409193
  54.8782768  30.7646629   3.3992885  54.9280773  30.5996636   4.3408407
  54.7696691  29.8973888   3.0090765  52.1686530  26.7477557   4.7152191
  53.0696393  26.6084022   4.4236189  52.2434505  26.9132012   5.6550369
  46.5029336  24.1244412   3.5605378  45.6332645  24.4177978   3.2887966
  46.7388816  24.7084857   4.2812641  56.3800965  33.1843571   3.6434906
  56.0885773  33.5473551   4.4798367  55.7673096  32.4710579   3.4648238
  54.6288153  28.3076185   2.1114964  55.1042275  28.5003831   1.3033815
  53.7053718  28.3635371   1.8658348  49.2068369  20.3424029   1.0770798
  49.7250313  21.0785056   0.7517287  48.8523502  20.6488022   1.9117557
  53.3289822  25.1841945   0.3443270  54.2807245  25.2840043   0.3655494
  53.1593272  24.3920214   0.8541354  51.3504201  22.2697528   0.5302671
  50.7554134  22.5502541  -0.1650841  51.0653898  22.7591429   1.3019412
  55.8077900  28.4048065  -0.5414431  55.7754220  27.4664066  -0.3554747
  56.4178523  28.4832102  -1.2748606  47.5299923  31.3261864   6.9613430
  48.4502933  31.5040463   7.1553477  47.4949506  30.3817909   6.8093130
  40.5261996  29.2362899  -0.3963789  40.7448005  30.1680007  -0.3775755
  40.9387770  28.8770873   0.3891015  45.3989861  24.8096104   8.9938960
  45.2986588  25.7590461   8.9251052  45.1811403  24.4814343   8.1215031
  36.6170348  30.1403369  -2.1440173  35.9233820  29.7257322  -2.6570219
  37.3643339  30.1823906  -2.7406755  45.2621131  28.2393243   7.8104022
  44.7788213  29.0393603   8.0167911  45.3482070  28.2501188   6.8571466
  41.1894469  32.1297778  -0.1527544  42.1437722  32.0981720  -0.2197613
  40.9906992  31.6688402   0.6622682  41.7793851  30.6998894   2.4143254
  42.5986740  31.1942973   2.4378091  42.0530658  29.7830862   2.3860821
  39.5444697  37.6717398  -3.1357346  39.4099165  36.9117798  -3.7019348
  39.1276760  38.3958297  -3.6028557  42.7013823  38.5686715  -2.9238904
  42.5846207  39.5132147  -3.0260213  41.8806269  38.2660276  -2.5353104
  37.0328765  25.0337028   3.1135451  37.6787629  24.5235982   3.6022676
  36.8245916  25.7705710   3.6878876  49.5582157  32.1017875   8.6127591
  50.4273317  32.2758528   8.2514226  49.0788909  32.9212292   8.4903320
  43.7268337  39.2214976   0.2917025  44.6295584  39.2538587   0.6083520
  43.5005707  38.2915427   0.3063361  41.3726256  22.1804645   7.2110465
  42.2357717  21.8241450   7.4213789  40.7991667  21.8418540   7.8985869
  57.6619278  41.3239494   5.4781908  56.8852612  41.8833414   5.4684773
  58.3009841  41.8096277   5.9996778  54.6527014  41.2864596   5.8415185
  54.0225675  41.9680877   6.0750582  54.5463102  41.1747677   4.8968324
  53.9307757  35.5885362   8.2040436  53.5374702  35.0351560   8.8788081
  54.7473897  35.8995940   8.5946954  56.8475718  37.0043241   5.7960693
  57.5885431  37.6050394   5.7165155  57.0793640  36.2620879   5.2378735
  51.9917056  42.1899608   4.0738923  51.8770571  41.2884865   4.3746022
  51.1361573  42.4363305   3.7223739  58.6727174  36.7867134   3.0207989
  58.0255089  37.4857084   2.9272466  59.4428190  37.2203278   3.3884238
  54.5140334  40.1332974   3.0724085  53.9777691  39.6823712   3.7245681
  53.9257043  40.2678882   2.3294549  50.2479456  39.2688981   0.1577079
  50.1637644  38.6614651  -0.5772511  49.4262162  39.7598000   0.1586576
  58.6816196  43.6521841   6.6592564  58.0056833  43.5515971   7.3294940
  59.5043830  43.4961055   7.1228562  52.4003472  37.3063919   1.4972065
  52.4644798  38.1678749   1.0849463  52.3370592  36.6937920   0.7644424
  51.8755744  39.3787051   5.1445099  52.5027783  38.9964128   5.7582624
  51.0183663  39.1601253   5.5100792  54.9841848  36.5973903   3.3331654
  55.5076249  36.8436200   4.0957964  54.7654181  37.4293938   2.9134792
  49.6261127  42.9831272   3.1118445  48.8842863  43.1313907   3.6983075
  49.3053872  43.2439538   2.2485194  55.1123802  38.7004957   6.8059019
  55.1611957  39.5767080   6.4236789  55.6546316  38.1582350   6.2330662
  57.3423090  39.4536329   3.5605378  56.4726399  39.7469896   3.2887966
  57.5782570  40.0376774   4.2812641  56.2383615  40.1388022   8.9938960
  56.1380342  41.0882379   8.9251052  56.0205158  39.8106261   8.1215031
  56.1014886  43.5685161   7.8104022  55.6181967  44.3685521   8.0167911
  56.1875825  43.5793106   6.8571466  47.8722519  40.3628946   3.1135451
  48.5181383  39.8527900   3.6022676  47.6639671  41.0997627   3.6878876
  52.2120010  37.5096563   7.2110465  53.0751472  37.1533368   7.4213789
  51.6385421  37.1710457   7.8985869   3.1278765  62.1513583  36.3763566
   3.7223256  61.9109319  35.6656874   3.2005349  61.4320714  37.0037102
   7.0179260  44.6380381  22.4180745   6.2642968  44.0687779  22.2624750
   7.1526801  44.6043046  23.3651380   1.0943405  44.7909018  19.5282889
   0.9561304  44.9810614  18.6004078   0.7379624  45.5528401  19.9850940
   1.1212785  46.8585545  24.5394160   1.5549291  46.7660834  25.3877214
   1.8344365  46.8343045  23.9014176   1.9828334  46.9009245  27.0727046
   2.1764224  47.8055056  27.3186321   1.8828952  46.4416665  27.9065631
   3.2370397  43.4582912  23.7174949   3.2260274  44.3407628  23.3468883
   2.3687777  43.1054463  23.5229487   3.8395007  44.6083131  20.3224412
   4.2826153  43.8590457  19.9243536   2.9621518  44.5993268  19.9398144
   0.8722212  48.6113178  17.3318342   1.3973536  48.9500451  16.6067662
   0.7844564  47.6760194  17.1481476   2.1832190  48.5135490  30.1944290
   1.8916998  48.8765471  31.0307751   1.5704321  47.8002498  30.0157622
   3.3827872  46.0788370  22.7146860   4.2174763  46.5178174  22.8784420
   3.5187001  45.6027023  21.8955106   1.6109125  43.7339984  26.0094953
   1.5785445  42.7955985  26.1954637   2.2209748  43.8124021  25.2760778
   1.7603613  40.5251028  26.0553236   1.2442662  39.7409484  25.8683165
   2.6443562  40.1969744  26.2199756   7.4285675  44.7955991  25.1500990
   8.1589063  44.5341279  25.7108693   6.8192620  44.0584713  25.1903058
   5.5100972  42.9363854  25.7475441   4.7834135  42.8019819  25.1391933
   5.0948259  43.2440682  26.5532159   3.1278767  39.1575706  23.1008873
   3.7223257  38.9171442  22.3902181   3.2005350  38.4382837  23.7282409
   5.4349839  42.4641907  21.8752294   4.8749397  42.5335096  22.6483856
   4.8293343  42.2882891  21.1551790   7.0205858  59.1398421  24.5682249
   7.6584268  59.0205168  23.8645590   6.9026701  60.0879265  24.6270202
   3.8295564  59.0925849  24.5043774   3.4914076  58.9766914  23.6164309
   4.6985332  58.6917014  24.4844780   4.3115347  60.2460701  30.4629980
   4.3003988  59.8513499  29.5910483   4.4735987  59.5126773  31.0563751
   1.9578815  60.4074661  26.0010523   2.5542387  60.1830683  25.2867486
   2.0153787  59.6659406  26.6035971   6.5747126  56.8649875  21.6435457
   7.3610216  56.4469298  21.2925875   6.8385831  57.7695967  21.8117106
  11.9755553  56.8025108  22.5468436  12.7080725  56.2324325  22.7806265
  11.2194909  56.4146708  22.9874942   3.5931673  59.2252349  19.7431778
   3.2289880  58.6982970  20.4544700   4.4498789  58.8350818  19.5698264
   9.4980974  50.5146682  27.0063045   9.1664299  51.3842093  26.7824260
   8.9026587  50.1982966  27.6857075   9.3909637  55.2341768  24.0856395
   8.4826514  55.1657177  23.7915156   9.3397233  55.7113713  24.9138220
   3.4650503  56.6531414  32.0291292   2.6883837  57.2125334  32.0194157
   4.1041066  57.1388197  32.5506162  11.2571284  53.4358207  25.8634269
  10.6145664  53.7290740  25.2174063  10.7526212  53.3211127  26.6687465
   8.9111447  57.1821380  16.5520128   9.8229303  57.4148766  16.3767825
   8.4021094  57.7658424  15.9895206   1.7196875  59.4616867  31.5909259
   2.4611560  60.0001911  31.3144083   1.0133861  60.0883156  31.7480811
   7.1952215  61.6046008  30.1881420   7.6035571  61.1628418  29.4436053
   6.4729476  61.0298635  30.4415613   3.5483285  56.5418614  27.5614977
   4.3944480  56.9658028  27.7049626   3.4881923  55.8852239  28.2553540
   7.5181030  62.1647198  23.9433709   6.8889892  62.3292912  23.2409777
   7.1306692  62.5788808  24.7144673  11.3970261  63.1001636  21.2978073
  10.7121300  63.4800537  20.7475106  11.4814111  63.7096963  22.0310021
   6.6982730  54.2022983  29.2196151   6.4543662  54.9565043  28.6830427
   6.9742661  54.5808330  30.0543398   8.6521193  60.7461595  27.8973417
   8.8638088  61.3893355  27.2207798   8.6050941  59.9123912  27.4295347
   6.2547422  53.3579416  24.8009989   5.3931901  53.6560669  25.0926726
   6.2809857  53.5749815  23.8691021   3.0708991  61.9021606  21.2083794
   3.5347337  62.1809309  20.4188417   2.8065790  61.0005051  21.0256885
   9.7667021  63.6233550  26.0695774  10.5884465  63.2213738  25.7878456
   9.7629424  63.5201785  27.0211890  17.8573014  59.9672299  22.4180745
  17.1036722  59.3979697  22.2624750  17.9920555  59.9334963  23.3651380
   2.6506943  52.3335160  32.3470077   3.3916656  52.9342313  32.2674539
   2.8824866  51.5912798  31.7888119   6.5964106  48.3616263  26.6234358
   6.2528375  49.2517905  26.5473469   6.9643068  48.1717921  25.7603943
   4.1461499  53.1974575  20.1892032   3.2903096  52.8081425  20.0097670
   4.5588451  53.2766536  19.3291817   5.6760646  50.7320918  24.5883591
   5.1725442  50.6951053  23.7751397   5.9691253  51.6413661  24.6480248
   1.9203532  50.8159648  23.5949773   2.7856529  50.6202457  23.2355663
   1.9881041  50.5870000  24.5219130  11.5348662  61.1057229  17.0659967
  10.7578105  60.7668388  16.6215129  12.2140143  61.1109852  16.3914932
   6.3500692  56.2251966  16.9566575   6.0450827  56.5398116  17.8076718
   7.3031134  56.3033386  16.9993908   9.7739969  60.5791210  23.7226575
   9.1163644  61.2690472  23.8106703  10.5780369  60.9687642  24.0660561
   8.5845428  58.9335583  21.7730517   9.0977310  59.5665575  22.2752226
   9.2346652  58.3336778  21.4073877   1.8288519  49.9203105  19.6941209
   1.1752931  49.6052122  19.0697824   1.7868993  49.2978845  20.4201032
   5.0626259  56.4085038  24.0188857   4.1448820  56.6299985  23.8610545
   5.4786403  56.4831349  23.1600564   5.8461307  57.8076454  19.1491537
   6.5933126  58.3197851  18.8398659   6.1152896  57.4860507  20.0095931
   9.3507224  63.9141584  19.9009659   8.8969552  63.0732494  19.9574850
   8.7201191  64.5502983  20.2384439   8.2940144  54.8433570  21.1310327
   7.5562901  54.3310957  21.4620569   8.5466918  54.4033952  20.3193604
   8.3951771  47.6209822  21.7252096   8.7010648  46.7607186  21.4378011
   9.1204376  48.2127443  21.5251090   2.6672851  57.9163615  22.2328287
   2.7221461  56.9637452  22.1570764   1.8564053  58.0723054  22.7169585
   6.2039423  56.9982500  28.8233560   6.5588810  57.2253973  29.6828025
   6.8511554  57.3300876  28.2010815  11.9337160  60.1200935  19.5282889
  11.7955058  60.3102531  18.6004078  11.5773378  60.8820318  19.9850940
  11.9606539  62.1877462  24.5394160  12.3943046  62.0952752  25.3877214
  12.6738120  62.1634963  23.9014176  12.8222089  62.2301163  27.0727046
  13.0157979  63.1346974  27.3186321  12.7222707  61.7708582  27.9065631
   4.4758399  52.1159054  29.5717373   3.8286315  52.8149003  29.4781849
   5.2459415  52.5495198  29.9393621   7.8837197  62.3807906  32.6467926
   7.7322704  62.1518458  31.7298010   7.8741877  63.3378507  32.6599271
   4.6522534  59.9539819  27.6314193   5.5814594  60.1050978  27.4583160
   4.2313564  60.0423839  26.7762839   1.6042625  58.4759675  27.8037829
   2.3142244  57.8352867  27.7624447   1.5611934  58.7272570  28.7264010
   9.5946811  63.3766612  28.9558388   8.7073590  63.0392534  29.0784787
  10.1645362  62.6449644  29.1927153   6.2234394  53.0834464  22.0756658
   6.7203094  52.3304427  21.7557728   5.4521376  53.1198781  21.5099867
  14.0764152  58.7874830  23.7174949  14.0654028  59.6699545  23.3468883
  13.2081531  58.4346381  23.5229487   7.3064175  61.8406151  19.6495081
   6.3720454  61.9607614  19.4799786   7.4840844  60.9378618  19.3855091
   2.8069363  55.2251847  21.8028343   2.4367151  54.6722888  22.4909248
   3.3028456  54.6209981  21.2503343  10.6936727  57.6823471  20.1845116
  11.1597179  58.5151462  20.1105418  11.1444227  57.2168452  20.8890374
   8.7612958  64.0267292  17.1831268   9.0372802  63.9123887  18.0925142
   7.8917456  63.6284777  17.1443441   8.6653389  50.0504058  24.2236017
   7.7516469  50.2808285  24.3918224   9.0946491  50.1342502  25.0750049
   8.4359848  58.2393950  26.7235911   7.7831298  58.4869857  26.0688364
   8.8140228  57.4258088  26.3898388   4.4847421  58.9813761  33.2101948
   3.8088058  58.8807890  33.8804323   5.3075055  58.8252974  33.6737945
   1.9925618  52.8679518  27.5690709   1.6522438  52.0687331  27.9711388
   1.2864624  53.1681229  26.9967542   2.6442090  49.9528830  26.0218032
   3.4668159  49.4789308  25.8996922   2.8880153  50.7319314  26.5216718
   5.4281447  53.6862238  17.2539266   5.6445061  54.5686876  16.9528094
   4.9475514  53.2948451  16.5244908   2.0277051  53.6350499  23.8790900
   2.0138620  52.7391592  23.5423198   2.7449479  53.6421163  24.5129186
   3.8803182  54.0687839  25.9244027   3.6220960  54.9904910  25.9228358
   3.3488222  53.6718274  26.6144491   1.4313947  52.5164879  19.1478470
   1.5529858  51.5881525  19.3469357   1.1415990  52.5303565  18.2356785
   4.3005138  50.2019790  22.2845190   4.3226834  50.2659123  21.3297169
   4.7173197  49.3624298  22.4785696  14.6788762  59.9375049  20.3224412
  15.1219908  59.1882374  19.9243536  13.8015272  59.9285186  19.9398144
  11.7115966  63.9405096  17.3318342  12.2367290  64.2792369  16.6067662
  11.6238319  63.0052111  17.1481476   0.9155027  54.0296877  33.3568403
   0.9643182  54.9058999  32.9746172   1.4577541  53.4874270  32.7840046
  11.4009872  64.5738000  32.6369540  10.6105416  64.5562139  32.0974039
  11.1643227  65.1126293  33.3918576  11.5207747  61.4230466  29.9502268
  11.5705752  61.2580474  30.8917791  11.4121671  60.5557725  29.5600149
   8.8111510  57.4061394  31.2661575   9.7121373  57.2667859  30.9745573
   8.8859484  57.5715849  32.2059752   3.1454315  54.7828249  30.1114761
   2.2757625  55.0761815  29.8397350   3.3813795  55.3668694  30.8322025
  13.0225944  63.8427408  30.1944290  12.7310753  64.2057388  31.0307751
  12.4098076  63.1294416  30.0157622  14.2221627  61.4080287  22.7146860
  15.0568518  61.8470092  22.8784420  14.3580755  60.9318941  21.8955106
  11.2713132  58.9660022  28.6624348  11.7467254  59.1587669  27.8543199
  10.3478698  59.0219208  28.4167731   5.8493349  51.0007866  27.6280182
   6.3675293  51.7368893  27.3026670   5.4948482  51.3071859  28.4626941
   6.1005943  47.4208148  23.1481078   6.3807697  46.7531337  23.7741505
   6.8856550  47.6137244  22.6355742   9.9714801  55.8425782  26.8952653
  10.9232224  55.9423880  26.9164877   9.8018252  55.0504051  27.4050738
   7.9929181  52.9281366  27.0812054   7.3979113  53.2086378  26.3858543
   7.7078878  53.4175267  27.8528795  12.4502879  59.0631902  26.0094953
  12.4179199  58.1247903  26.1954637  13.0603503  59.1415939  25.2760778
  12.5997368  55.8542945  26.0553236  12.0836416  55.0701402  25.8683165
  13.4837316  55.5261662  26.2199756  10.2608095  49.5983961  22.0149049
  10.0632916  49.2899049  22.8992381  10.8707800  50.3245600  22.1446979
  18.2679429  60.1247909  25.1500990  18.9982818  59.8633197  25.7108693
  17.6586375  59.3876631  25.1903058  16.3494726  58.2655771  25.7475441
  15.6227890  58.1311736  25.1391933  15.9342013  58.5732600  26.5532159
   4.1724903  61.9845701  33.5122814   5.0927912  62.1624300  33.7062860
   4.1374486  61.0401747  33.3602513   4.0891193  50.4014821  18.1421284
   3.2791921  50.0561906  18.5176530   4.7775610  50.0922365  18.7308895
   6.0181741  49.4792868  19.7645580   6.5712780  49.8988321  20.4235603
   6.2551828  48.5528616  19.8068536   2.0414841  55.4679942  35.5448344
   1.9411567  56.4174299  35.4760435   1.8236383  55.1398180  34.6724414
   9.3960548  51.5893393  19.2724244   8.8159217  52.2478197  18.8902297
   9.1296481  50.7670738  18.8611662   7.8464115  50.9898451  21.4745565
   8.3463893  51.1014985  20.6659884   8.4899723  50.6859504  22.1146373
   1.9046111  58.8977080  34.3613406   1.4213192  59.6977441  34.5677295
   1.9907050  58.9085025  33.4080850   8.1785426  53.7493483  18.3280593
   7.2911281  54.0343134  18.1100787   8.5939415  53.5887247  17.4807870
  11.5299963  53.7740004  22.0434932  12.3060353  54.2636457  22.3159549
  10.8048097  54.1998059  22.5006801  13.9672521  54.4867624  23.1008873
  14.5617012  54.2463360  22.3902181  14.0399105  53.7674754  23.7282409
   8.1526450  59.2648019  18.5430883   8.0961652  59.7216571  17.7038515
   8.7054793  58.5038704  18.3653726  11.9631256  55.0537751  19.3681002
  11.7068190  54.6534387  20.1989210  11.3384124  55.7681545  19.2431141
  16.2743594  57.7933825  21.8752294  15.7143152  57.8627014  22.6483856
  15.6687097  57.6174809  21.1551790   8.8861229  60.4552801  15.8383412
   8.8310033  60.2897072  14.8971856   8.2607285  61.1628834  15.9945602
   2.1957355  49.9560910  15.4168730   2.1836025  50.9002750  15.5737001
   3.0880777  49.7731055  15.1228192   6.0109474  46.5503686  19.6714667
   5.2441870  45.9962173  19.8171350   6.4220179  46.6225555  20.5328819
  20.3374728  65.8438600  27.0063045  20.0058053  66.7134011  26.7824260
  19.7420342  65.5274884  27.6857075  17.4357860  63.6908181  26.6234358
  17.0922130  64.5809822  26.5473469  17.8036823  63.5009838  25.7603943
  16.5154401  66.0612836  24.5883591  16.0119196  66.0242971  23.7751397
  16.8085007  66.9705579  24.6480248  12.6682273  65.2495023  19.6941209
  12.0146686  64.9344040  19.0697824  12.6262747  64.6270763  20.4201032
  19.2345526  62.9501740  21.7252096  19.5404403  62.0899103  21.4378011
  19.9598131  63.5419360  21.5251090  19.5047144  65.3795975  24.2236017
  18.5910224  65.6100202  24.3918224  19.9340245  65.4634419  25.0750049
  13.4835844  65.2820748  26.0218032  14.3061913  64.8081226  25.8996922
  13.7273908  66.0611232  26.5216718  15.1398892  65.5311707  22.2845190
  15.1620589  65.5951040  21.3297169  15.5566951  64.6916216  22.4785696
  16.6887103  66.3299784  27.6280182  17.2069047  67.0660810  27.3026670
  16.3342236  66.6363777  28.4626941  16.9399698  62.7500066  23.1481078
  17.2201451  62.0823255  23.7741505  17.7250305  62.9429162  22.6355742
  21.1001849  64.9275879  22.0149049  20.9026670  64.6190967  22.8992381
  21.7101555  65.6537518  22.1446979  14.9284947  65.7306739  18.1421284
  14.1185676  65.3853824  18.5176530  15.6169364  65.4214283  18.7308895
  16.8575496  64.8084786  19.7645580  17.4106534  65.2280239  20.4235603
  17.0945582  63.8820534  19.8068536  20.2354303  66.9185311  19.2724244
  19.6552972  67.5770115  18.8902297  19.9690236  66.0962655  18.8611662
  18.6857869  66.3190368  21.4745565  19.1857648  66.4306903  20.6659884
  19.3293477  66.0151421  22.1146373  24.8066276  69.8159541  23.1008873
  25.4010766  69.5755277  22.3902181  24.8792859  69.0966672  23.7282409
  16.8503229  61.8795604  19.6714667  16.0835625  61.3254091  19.8171350
  17.2613934  61.9517473  20.5328819   1.9828336  23.9071368  13.7972352
   2.1764226  24.8117179  14.0431627   1.8828954  23.4478787  14.6310937
   2.1832191  25.5197613  16.9189596   1.8916999  25.8827593  17.7553057
   1.5704322  24.8064621  16.7402928   7.0205859  36.1460543  11.2927556
   7.6584269  36.0267291  10.5890896   6.9026702  37.0941387  11.3515508
   3.8295565  36.0987972  11.2289081   3.4914077  35.9829036  10.3409616
   4.6985334  35.6979137  11.2090087   4.3115348  37.2522823  17.1875286
   4.3003989  36.8575621  16.3155790   4.4735988  36.5188896  17.7809058
   1.0322610  40.0359935  16.1354470   0.7412476  40.9405566  16.0201137
   1.6679594  40.0776463  16.8498540   1.9578816  37.4136784  12.7255830
   2.5542389  37.1892806  12.0112793   2.0153788  36.6721529  13.3281278
   6.5747128  33.8711997   8.3680764   7.3610217  33.4531420   8.0171181
   6.8385832  34.7758089   8.5362413  11.9755555  33.8087230   9.2713743
  12.7080727  33.2386447   9.5051572  11.2194910  33.4208831   9.7120248
   3.5931674  36.2314472   6.4677085   3.2289882  35.7045093   7.1790007
   4.4498790  35.8412941   6.2943571   9.4980975  27.5208805  13.7308351
   9.1664300  28.3904216  13.5069566   8.9026588  27.2045089  14.4102382
   5.9912495  39.7221351  13.1304264   5.6913218  40.6246389  13.0220071
   5.6463554  39.4553534  13.9825417   9.3909638  32.2403891  10.8101701
   8.4826516  32.1719299  10.5160462   9.3397234  32.7175836  11.6383527
   3.4650504  33.6593536  18.7536599   2.6883838  34.2187456  18.7439463
   4.1041067  34.1450319  19.2751469  11.2571285  30.4420329  12.5879575
  10.6145665  30.7352862  11.9419370  10.7526213  30.3273249  13.3932772
   1.7196877  36.4678990  18.3154566   2.4611561  37.0064034  18.0389389
   1.0133862  37.0945278  18.4726117   7.1952216  38.6108130  16.9126727
   7.6035572  38.1690541  16.1681359   6.4729478  38.0360758  17.1660920
   3.5483286  33.5480737  14.2860284   4.3944481  33.9720150  14.4294933
   3.4881924  32.8914361  14.9798847   7.5181031  39.1709321  10.6679016
   6.8889893  39.3355035   9.9655084   7.1306693  39.5850930  11.4389980
  11.3970263  40.1063759   8.0223380  10.7121301  40.4862660   7.4720413
  11.4814112  40.7159085   8.7555327   6.6982732  31.2085105  15.9441458
   6.4543663  31.9627166  15.4075733   6.9742662  31.5870453  16.7788705
   8.6521194  37.7523718  14.6218723   8.8638090  38.3955478  13.9453104
   8.6050943  36.9186034  14.1540653   6.2547423  30.3641538  11.5255295
   5.3931902  30.6622792  11.8172033   6.2809858  30.5811937  10.5936328
   3.0708993  38.9083729   7.9329101   3.5347338  39.1871432   7.1433724
   2.8065791  38.0067173   7.7502192   9.7667022  40.6295673  12.7941081
  10.5884466  40.2275860  12.5123762   9.7629425  40.5263907  13.7457196
   3.5323626  40.1779716  14.9501791   3.5968058  40.6400124  15.7859963
   2.8234550  39.5477081  15.0784101  17.8573015  36.9734422   9.1426052
  17.1036724  36.4041820   8.9870056  17.9920556  36.9397086  10.0896687
   2.6506944  29.3397283  19.0715383   3.3916657  29.9404436  18.9919846
   2.8824867  28.5974921  18.5133426   4.8740120  42.4671390  18.9481113
   4.4303974  41.6807769  18.6302018   5.5357333  42.6550541  18.2825004
   6.9721358  42.7474190  16.9762515   6.9539833  43.5683071  16.4842784
   7.8941278  42.6228266  17.2012656   3.4294412  40.2618320  17.8186023
   3.9622749  39.5006608  17.5885331   2.9008493  39.9691972  18.5610178
   6.5964107  25.3678386  13.3479665   6.2528376  26.2580027  13.2718775
   6.9643070  25.1780043  12.4849250   5.6760647  27.7383041  11.3128898
   5.1725443  27.7013176  10.4996703   5.9691254  28.6475784  11.3725555
  11.5348664  38.1119351   3.7905273  10.7578107  37.7730511   3.3460436
  12.2140145  38.1171975   3.1160239   9.7739971  37.5853333  10.4471881
   9.1163645  38.2752594  10.5352010  10.5780370  37.9749765  10.7905868
   8.5845429  35.9397705   8.4975823   9.0977311  36.5727697   8.9997533
   9.2346653  35.3398901   8.1319183   5.0626260  33.4147161  10.7434164
   4.1448822  33.6362108  10.5855852   5.4786404  33.4893471   9.8845871
   5.8461308  34.8138577   5.8736844   6.5933127  35.3259974   5.5643966
   6.1152898  34.4922629   6.7341238   9.3507226  40.9203707   6.6254966
   8.8969553  40.0794617   6.6820156   8.7201192  41.5565105   6.9629746
   8.2940145  31.8495693   7.8555633   7.5562902  31.3373079   8.1865876
   8.5466919  31.4096075   7.0438910   7.7940165  42.7580204   7.5604784
   8.0863139  43.3185261   6.8417150   8.3038785  43.0508765   8.3157943
   2.6672852  34.9225738   8.9573594   2.7221462  33.9699574   8.8816070
   1.8564054  35.0785177   9.4414892   6.2039424  34.0044622  15.5478866
   6.5588812  34.2316095  16.4073332   6.8511555  34.3362999  14.9256122
  11.9337161  37.1263058   6.2528195  11.7955059  37.3164654   5.3249385
  11.5773380  37.8882441   6.7096247  11.9606540  39.1939585  11.2639467
  12.3943047  39.1014874  12.1122521  12.6738121  39.1697086  10.6259483
   5.6934435  42.7941679  12.7972568   5.7471458  43.3632616  13.5650283
   4.8249217  42.9643564  12.4326605  12.8222090  39.2363286  13.7972352
  13.0157980  40.1409096  14.0431627  12.7222708  38.7770705  14.6310937
   4.4758401  29.1221176  16.2962680   3.8286316  29.8211126  16.2027156
   5.2459416  29.5557320  16.6638928   7.8837199  39.3870029  19.3713233
   7.7322705  39.1580580  18.4543317   7.8741878  40.3440630  19.3844578
   4.6522535  36.9601941  14.3559499   5.5814595  37.1113101  14.1828467
   4.2313565  37.0485962  13.5008146   3.4510867  40.9852606  12.1258037
   3.3121953  40.6171390  12.9983975   2.6625463  41.5000245  11.9541995
   5.0016082  40.3634208   9.5146875   4.6665915  40.3234978  10.4104525
   4.5020028  39.6978924   9.0417285   1.6042627  35.4821798  14.5283136
   2.3142245  34.8414990  14.4869754   1.5611935  35.7334693  15.4509316
   9.5929405  42.4189151  17.4489715   9.5341951  41.7348371  16.7820298
   9.9948924  43.1608141  16.9970341   9.5946813  40.3828735  15.6803694
   8.7073591  40.0454657  15.8030093  10.1645364  39.6511766  15.9172460
   3.1247966  45.0430187  12.6464938   3.0518137  45.8485159  13.1584242
   2.6825359  45.2422153  11.8212959  14.0764153  35.7936952  10.4420256
  14.0654029  36.6761668  10.0714189  13.2081533  35.4408503  10.2474793
   5.5846650  44.9417021  14.8023096   6.2974622  45.5764486  14.7298998
   5.0936678  45.0380887  13.9863098   7.3064176  38.8468274   6.3740388
   6.3720455  38.9669737   6.2045092   7.4840845  37.9440741   6.1100398
  10.6936728  34.6885593   6.9090422  11.1597180  35.5213585   6.8350725
  11.1444228  34.2230575   7.6135681   8.7612959  41.0329415   3.9076574
   9.0372803  40.9186009   4.8170448   7.8917458  40.6346899   3.8688747
   8.6653391  27.0566180  10.9481323   7.7516470  27.2870407  11.1163530
   9.0946492  27.1404624  11.7995356   8.4359849  35.2456072  13.4481217
   7.7831299  35.4931980  12.7933670   8.8140229  34.4320210  13.1143695
   4.4847422  35.9875883  19.9347255   3.8088059  35.8870013  20.6049630
   5.3075056  35.8315097  20.3983252   3.2270205  47.2942811  14.1704871
   3.7788513  47.4574432  14.9353956   3.5676398  47.8847249  13.4984895
   8.0781079  42.1204068  20.0253525   8.6220983  42.7334027  19.5308480
   7.4967924  42.6783647  20.5420538   6.3638592  45.2424786  11.1568553
   6.2389732  44.4414526  10.6479498   7.0217683  45.7370980  10.6682523
   8.4273501  43.0433806  12.7848103   7.4803836  42.9239158  12.7126430
   8.7756274  42.1556304  12.8674364   5.4319934  42.8386523   8.9852455
   5.2844896  41.9103230   9.1660025   6.2573427  42.8606613   8.5009530
   9.0354056  43.6615081  10.0717328   9.9600603  43.4557943   9.9341779
   8.8669359  43.4131483  10.9806669   1.9925619  29.8741640  14.2936015
   1.6522439  29.0749453  14.6956695   1.2864625  30.1743351  13.7212848
   2.6442091  26.9590953  12.7463338   3.4668160  26.4851431  12.6242229
   2.8880154  27.7381437  13.2462025   3.8803183  31.0749962  12.6489334
   3.6220961  31.9967032  12.6473664   3.3488224  30.6780396  13.3389798
   8.8249372  44.1800749   5.4279419   8.9986249  43.6147171   4.6753272
   9.3178263  44.9801644   5.2458909  14.6788763  36.9437172   7.0469719
  15.1219909  36.1944497   6.6488842  13.8015273  36.9347308   6.6643451
  11.7115968  40.9467219   4.0563648  12.2367292  41.2854491   3.3312968
  11.6238320  40.0114234   3.8726783   3.3736016  44.8601292  16.1853525
   3.6823143  44.6150439  17.0576225   4.1711498  45.0647931  15.6972395
   0.9155028  31.0358999  20.0813709   0.9643183  31.9121122  19.6991479
   1.4577542  30.4936392  19.5085352  11.4009874  41.5800122  19.3614846
  10.6105417  41.5624261  18.8219346  11.1643228  42.1188416  20.1163883
  11.5207749  38.4292589  16.6747575  11.5705754  38.2642596  17.6163098
  11.4121672  37.5619848  16.2845456   8.8111511  34.4123517  17.9906882
   9.7121374  34.2729982  17.6990879   8.8859486  34.5777972  18.9305059
   3.1454316  31.7890372  16.8360068   2.2757626  32.0823938  16.5642656
   3.3813797  32.3730817  17.5567331  13.0225945  40.8489530  16.9189596
  12.7310754  41.2119511  17.7553057  12.4098077  40.1356539  16.7402928
  14.2221628  38.4142410   9.4392167  15.0568519  38.8532214   9.6029727
  14.3580757  37.9381063   8.6200412  11.2713134  35.9722145  15.3869654
  11.7467255  36.1649791  14.5788506  10.3478699  36.0281331  15.1413038
   5.8493350  28.0069988  14.3525488   6.3675294  28.7431015  14.0271977
   5.4948483  28.3133982  15.1872247   9.9714803  32.8487905  13.6197960
  10.9232226  32.9486003  13.6410184   9.8018253  32.0566174  14.1296044
   7.9929182  29.9343488  13.8057361   7.3979114  30.2148501  13.1103849
   7.7078879  30.4237389  14.5774102  12.4502881  36.0694025  12.7340260
  12.4179201  35.1310025  12.9199943  13.0603504  36.1478061  12.0006084
  12.5997369  32.8605068  12.7798543  12.0836418  32.0763525  12.5928472
  13.4837318  32.5323785  12.9445062  18.2679430  37.1310032  11.8746296
  18.9982819  36.8695320  12.4354000  17.6586376  36.3938753  11.9148364
  16.3494727  35.2717894  12.4720748  15.6227891  35.1373859  11.8637239
  15.9342014  35.5794723  13.2777466   4.1724904  38.9907824  20.2368121
   5.0927913  39.1686423  20.4308167   4.1374487  38.0463869  20.0847820
   2.0414842  32.4742064  22.2693651   1.9411569  33.4236421  22.2005742
   1.8236384  32.1460303  21.3969721   1.9046112  35.9039203  21.0858712
   1.4213194  36.7039563  21.2922601   1.9907051  35.9147148  20.1326156
  11.5299964  30.7802127   8.7680239  12.3060354  31.2698580   9.0404855
  10.8048098  31.2060181   9.2252108  13.9672522  31.4929746   9.8254179
  14.5617013  31.2525482   9.1147487  14.0399106  30.7736877  10.4527715
   8.1526451  36.2710142   5.2676189   8.0961653  36.7278693   4.4283822
   8.7054794  35.5100827   5.0899032  11.9631257  32.0599874   6.0926309
  11.7068192  31.6596510   6.9234517  11.3384125  32.7743668   5.9676448
  16.2743595  34.7995947   8.5997600  15.7143153  34.8689136   9.3729162
  15.6687099  34.6236932   7.8797097   6.2007138  39.7663835  21.8882281
   7.0698298  39.9404487  21.5268916   5.7213889  40.5858252  21.7658011
  17.8599614  51.4752461  11.2927556  18.4978024  51.3559208  10.5890896
  17.7420457  52.4233305  11.3515508  14.6689320  51.4279889  11.2289081
  14.3307831  51.3120954  10.3409616  15.5379088  51.0271054  11.2090087
  15.1509103  52.5814741  17.1875286  15.1397744  52.1867539  16.3155790
  15.3129742  51.8480814  17.7809058  11.8716364  55.3651853  16.1354470
  11.5806230  56.2697484  16.0201137  12.5073348  55.4068380  16.8498540
  12.7972571  52.7428701  12.7255830  13.3936143  52.5184724  12.0112793
  12.8547542  52.0013447  13.3281278  17.4140882  49.2003915   8.3680764
  18.2003971  48.7823338   8.0171181  17.6779586  50.1050007   8.5362413
  22.8149309  49.1379148   9.2713743  23.5474481  48.5678365   9.5051572
  22.0588665  48.7500749   9.7120248  14.4325429  51.5606390   6.4677085
  14.0683636  51.0337011   7.1790007  15.2892545  51.1704859   6.2943571
  20.3374730  42.8500722  13.7308351  20.0058054  43.7196133  13.5069566
  19.7420343  42.5337006  14.4102382  16.8306249  55.0513268  13.1304264
  16.5306972  55.9538307  13.0220071  16.4857309  54.7845451  13.9825417
  10.2818731  51.5027065   9.1640968   9.3569227  51.3703279   9.3718660
  10.5303144  52.2821284   9.6610911  20.2303393  47.5695808  10.8101701
  19.3220270  47.5011217  10.5160462  20.1790989  48.0467753  11.6383527
  14.3044259  48.9885454  18.7536599  13.5277593  49.5479374  18.7439463
  14.9434822  49.4742237  19.2751469  22.0965039  45.7712247  12.5879575
  21.4539420  46.0644780  11.9419370  21.5919968  45.6565167  13.3932772
  19.7505203  49.5175420   3.2765434  20.6623059  49.7502807   3.1013132
  19.2414850  50.1012464   2.7140513  12.5590631  51.7970907  18.3154566
  13.3005315  52.3355951  18.0389389  11.8527616  52.4237196  18.4726117
  18.0345971  53.9400048  16.9126727  18.4429327  53.4982458  16.1681359
  17.3123232  53.3652675  17.1660920  14.3877041  48.8772655  14.2860284
  15.2338236  49.3012068  14.4294933  14.3275678  48.2206279  14.9798847
  18.3574785  54.5001238  10.6679016  17.7283648  54.6646953   9.9655084
  17.9700447  54.9142848  11.4389980  22.2364017  55.4355676   8.0223380
  21.5515055  55.8154578   7.4720413  22.3207866  56.0451003   8.7555327
  17.5376486  46.5377023  15.9441458  17.2937418  47.2919083  15.4075733
  17.8136417  46.9162371  16.7788705  19.4914949  53.0815635  14.6218723
  19.7031844  53.7247395  13.9453104  19.4444697  52.2477952  14.1540653
  17.0941178  45.6933456  11.5255295  16.2325657  45.9914710  11.8172033
  17.1203612  45.9103855  10.5936328  13.9102747  54.2375647   7.9329101
  14.3741093  54.5163350   7.1433724  13.6459545  53.3359091   7.7502192
  10.8026828  53.7847128  10.8708864  11.3728185  54.2134396  10.2326349
  11.3934940  53.5029713  11.5693050  11.2951995  48.9510556  19.1169876
  10.6650655  49.6326836  19.3505272  11.1888083  48.8393637  18.1723014
  20.6060777  55.9587591  12.7941081  21.4278220  55.5567778  12.5123762
  20.6023180  55.8555825  13.7457196  14.3717380  55.5071634  14.9501791
  14.4361813  55.9692041  15.7859963  13.6628304  54.8768999  15.0784101
   4.8734670  48.8712842  12.4750791   5.1242709  49.7559852  12.7408366
   5.4094219  48.6917444  11.7025882  28.6966770  52.3026339   9.1426052
  27.9430478  51.7333737   8.9870056  28.8314311  52.2689004  10.0896687
  10.5732737  43.2531321  21.4795127  10.1799683  42.6997520  22.1542771
  11.3898878  43.5641900  21.8701644  13.4900698  44.6689200  19.0715383
  14.2310412  45.2696354  18.9919846  13.7218621  43.9266838  18.5133426
   8.6342036  49.8545568  17.3493613   8.5195552  48.9530825  17.6500712
   7.7786554  50.1009264  16.9978429  15.7133874  57.7963308  18.9481113
  15.2697728  57.0099687  18.6302018  16.3751088  57.9842459  18.2825004
  17.8115112  58.0766108  16.9762515  17.7933588  58.8974989  16.4842784
  18.7335032  57.9520183  17.2012656  14.2688166  55.5910237  17.8186023
  14.8016503  54.8298526  17.5885331  13.7402248  55.2983889  18.5610178
  17.4357861  40.6970303  13.3479665  17.0922131  41.5871945  13.2718775
  17.8036824  40.5071961  12.4849250  14.9855255  45.5328615   6.9137338
  14.1296851  45.1435466   6.7342977  15.3982207  45.6120576   6.0537124
  16.5154402  43.0674959  11.3128898  16.0119197  43.0305094  10.4996703
  16.8085009  43.9767701  11.3725555  12.7597288  43.1513688  10.3195080
  13.6250284  42.9556497   9.9600969  12.8274797  42.9224040  11.2464437
  22.3742418  53.4411269   3.7905273  21.5971861  53.1022429   3.3460436
  23.0533899  53.4463892   3.1160239  17.1894447  48.5606007   3.6811881
  16.8844583  48.8752156   4.5322024  18.1424889  48.6387427   3.7239214
  20.6133725  52.9145250  10.4471881  19.9557400  53.6044512  10.5352010
  21.4174124  53.3041682  10.7905868  10.3659607  45.3815896   7.6911447
  10.9403359  45.1591078   6.9584640  10.9530589  45.4504591   8.4440048
  19.4239184  51.2689623   8.4975823  19.9371066  51.9019615   8.9997533
  20.0740408  50.6690819   8.1319183  12.6682274  42.2557145   6.4186516
  12.0146687  41.9406162   5.7943131  12.6262749  41.6332886   7.1446339
  15.9020015  48.7439079  10.7434164  14.9842576  48.9654026  10.5855852
  16.3180158  48.8185389   9.8845871  16.6855063  50.1430494   5.8736844
  17.4326882  50.6551892   5.5643966  16.9546652  49.8214547   6.7341238
  20.1900980  56.2495625   6.6254966  19.7363307  55.4086534   6.6820156
  19.5594947  56.8857023   6.9629746  19.1333900  47.1787611   7.8555633
  18.3956657  46.6664997   8.1865876  19.3860673  46.7387992   7.0438910
  18.6333919  58.0872121   7.5604784  18.9256894  58.6477178   6.8417150
  19.1432540  58.3800682   8.3157943  19.2345527  39.9563863   8.4497403
  19.5404404  39.0961226   8.1623318  19.9598132  40.5481483   8.2496396
  13.5066607  50.2517656   8.9573594  13.5615217  49.2991492   8.8816070
  12.6957809  50.4077095   9.4414892  11.4458967  48.8694715   6.7163972
  10.6326832  49.1688886   7.1229165  11.9417961  48.4750404   7.4338455
  17.0433178  49.3336540  15.5478866  17.3982566  49.5608013  16.4073332
  17.6905310  49.6654917  14.9256122  22.7730915  52.4554976   6.2528195
  22.6348814  52.6456572   5.3249385  22.4167134  53.2174359   6.7096247
  10.9373041  46.4413071  12.3325207  11.5772421  46.3001830  11.6348171
  10.1050572  46.1547584  11.9563809  22.8000295  54.5231503  11.2639467
  23.2336802  54.4306792  12.1122521  23.5131876  54.4989003  10.6259483
  16.5328190  58.1233597  12.7972568  16.5865212  58.6924533  13.5650283
  15.6642971  58.2935482  12.4326605   9.4126583  47.8251153  14.2797019
  10.0849637  47.6168515  13.6309668   8.5856370  47.6273239  13.8402251
  23.6615845  54.5655203  13.7972352  23.8551735  55.4701014  14.0431627
  23.5616463  54.1062623  14.6310937  15.3152155  44.4513094  16.2962680
  14.6680070  45.1503044  16.2027156  16.0853171  44.8849238  16.6638928
  18.7230953  54.7161946  19.3713233  18.5716460  54.4872498  18.4543317
  18.7135633  55.6732548  19.3844578  15.4916290  52.2893859  14.3559499
  16.4208350  52.4405019  14.1828467  15.0707320  52.3777880  13.5008146
  14.2904621  56.3144523  12.1258037  14.1515707  55.9463308  12.9983975
  13.5019218  56.8292163  11.9541995  15.8409837  55.6926126   9.5146875
  15.5059669  55.6526896  10.4104525  15.3413782  55.0270842   9.0417285
   9.8154080  51.0993756  15.0399456   9.6773878  50.3673995  15.6410995
  10.7259004  51.0102656  14.7583644  12.4436381  50.8113715  14.5283136
  13.1536000  50.1706908  14.4869754  12.4005689  51.0626610  15.4509316
  20.4323160  57.7481069  17.4489715  20.3735706  57.0640289  16.7820298
  20.8342678  58.4900059  16.9970341  11.1565315  47.7978933  16.3478775
  10.6202672  47.3469672  17.0000371  10.5682024  47.9324842  15.6049239
  20.4340567  55.7120653  15.6803694  19.5467346  55.3746574  15.8030093
  21.0039118  54.9803684  15.9172460   6.8904436  46.9334941  13.4331770
   6.8062625  46.3260611  12.6982179   6.0687143  47.4243959  13.4341266
  13.9641720  60.3722105  12.6464938  13.8911892  61.1777077  13.1584242
  13.5219114  60.5714071  11.8212959  17.0628150  45.4188505   8.8001965
  17.5596850  44.6658467   8.4803035  16.2915132  45.4552821   8.2345174
  24.9157908  51.1228870  10.4420256  24.9047784  52.0053585  10.0714189
  24.0475287  50.7700421  10.2474793  16.4240404  60.2708939  14.8023096
  17.1368376  60.9056404  14.7298998  15.9330433  60.3672805  13.9863098
  18.1457931  54.1760192   6.3740388  17.2114210  54.2961654   6.2045092
  18.3234599  53.2732658   6.1100398  13.6463119  47.5605887   8.5273649
  13.2760907  47.0076928   9.2154555  14.1422211  46.9564021   7.9748649
  21.5330482  50.0177511   6.9090422  21.9990934  50.8505503   6.8350725
  21.9837983  49.5522493   7.6135681  11.4752318  58.0203383  15.6228667
  12.1761777  58.6539865  15.7758061  11.0047433  58.3618114  14.8624306
  19.6006713  56.3621332   3.9076574  19.8766557  56.2477927   4.8170448
  18.7311212  55.9638817   3.8688747  19.5047145  42.3858098  10.9481323
  18.5910225  42.6162325  11.1163530  19.9340246  42.4696542  11.7995356
  19.2753604  50.5747990  13.4481217  18.6225054  50.8223897  12.7933670
  19.6533983  49.7612128  13.1143695  15.3241177  51.3167801  19.9347255
  14.6481814  51.2161930  20.6049630  16.1468810  51.1607015  20.3983252
  14.0663959  62.6234728  14.1704871  14.6182267  62.7866350  14.9353956
  14.4070153  63.2139166  13.4984895   9.0428453  44.9709878  14.7726755
   9.1069779  45.8324709  14.3604153   8.9795573  44.3583880  14.0399114
   8.5180725  47.0433011  18.4199790   9.1452764  46.6610088  19.0337314
   7.6608644  46.8247213  18.7855482  18.9174834  57.4495986  20.0253525
  19.4614738  58.0625944  19.5308480  18.3361679  58.0075564  20.5420538
  17.2032347  60.5716704  11.1568553  17.0783486  59.7706444  10.6479498
  17.8611438  61.0662897  10.6682523   8.8240515  46.9265436  10.3345693
   8.1027101  47.5401404  10.1953166   9.6133771  47.4623201  10.2562339
  19.2667255  58.3725724  12.7848103  18.3197591  58.2531075  12.7126430
  19.6150028  57.4848222  12.8674364  11.6266828  44.2619863  16.6086345
  12.1501230  44.5082160  17.3712654  11.4079162  45.0939898  16.1889482
  16.2713688  58.1678440   8.9852455  16.1238651  57.2395148   9.1660025
  17.0967182  58.1898531   8.5009530  19.8747810  58.9906999  10.0717328
  20.7994358  58.7849860   9.9341779  19.7063114  58.7423400  10.9806669
  12.8319373  45.2033558  14.2936015  12.4916194  44.4041371  14.6956695
  12.1258380  45.5035269  13.7212848  13.4835845  42.2882871  12.7463338
  14.3061915  41.8143349  12.6242229  13.7273909  43.0673354  13.2462025
  16.2675203  46.0216278   3.9784572  16.4838817  46.9040916   3.6773400
  15.7869270  45.6302491   3.2490214  11.0074424  48.9801991  10.5555317
  10.8619005  49.2942294  11.4479598  10.5299628  49.5986891  10.0026216
  12.8670807  45.9704539  10.6036206  12.8532376  45.0745632  10.2668504
  13.5843235  45.9775203  11.2374492  14.7196938  46.4041879  12.6489334
  14.4614715  47.3258950  12.6473664  14.1881978  46.0072314  13.3389798
  19.6643126  59.5092666   5.4279419  19.8380004  58.9439089   4.6753272
  20.1572018  60.3093561   5.2458909   5.4820086  51.5207336  13.4942978
   4.9373554  52.2967144  13.6263252   6.3599436  51.8678140  13.3362099
  12.2707703  44.8518919   5.8723777  12.3923614  43.9235566   6.0714664
  11.9809745  44.8657605   4.9602092  15.1398893  42.5373830   9.0090496
  15.1620590  42.6013163   8.0542476  15.5566952  41.6978339   9.2031003
  25.5182518  52.2729089   7.0469719  25.9613664  51.5236415   6.6488842
  24.6409028  52.2639226   6.6643451   6.2686108  50.6477232  16.3873135
   5.5267844  50.7959867  16.9737765   5.9478852  50.9085497  15.5239884
  22.5509722  56.2759136   4.0563648  23.0761046  56.6146409   3.3312968
  22.4632075  55.3406152   3.8726783  14.2129771  60.1893210  16.1853525
  14.5216897  59.9442357  17.0576225  15.0105253  60.3939849  15.6972395
  11.7548782  46.3650917  20.0813709  11.8036938  47.2413040  19.6991479
  12.2971297  45.8228310  19.5085352  22.2403628  56.9092040  19.3614846
  21.4499172  56.8916179  18.8219346  22.0036983  57.4480334  20.1163883
  22.3601503  53.7584506  16.6747575  22.4099508  53.5934514  17.6163098
  22.2515426  52.8911765  16.2845456  19.6505266  49.7415434  17.9906882
  20.5515128  49.6021899  17.6990879  19.7253240  49.9069889  18.9305059
  13.9848071  47.1182289  16.8360068  13.1151380  47.4115855  16.5642656
  14.2207551  47.7022734  17.5567331  23.8619700  56.1781448  16.9189596
  23.5704508  56.5411428  17.7553057  23.2491831  55.4648456  16.7402928
  25.0615382  53.7434328   9.4392167  25.8962274  54.1824132   9.6029727
  25.1974511  53.2672981   8.6200412  22.1106888  51.3014063  15.3869654
  22.5861010  51.4941709  14.5788506  21.1872454  51.3573248  15.1413038
  16.6887105  43.3361906  14.3525488  17.2069049  44.0722933  14.0271977
  16.3342237  43.6425899  15.1872247  16.9399699  39.7562189   9.8726385
  17.2201453  39.0885378  10.4986811  17.7250306  39.9491284   9.3601049
  20.8108557  48.1779823  13.6197960  21.7625980  48.2777920  13.6410184
  20.6412008  47.3858091  14.1296044  18.8322937  45.2635406  13.8057361
  18.2372869  45.5440419  13.1103849  18.5472633  45.7529307  14.5774102
  23.2896635  51.3985942  12.7340260  23.2572955  50.4601943  12.9199943
  23.8997259  51.4769979  12.0006084  23.4391123  48.1896986  12.7798543
  22.9230172  47.4055442  12.5928472  24.3231072  47.8615702  12.9445062
  21.1001850  41.9338001   8.7394355  20.9026672  41.6253090   9.6237687
  21.7101556  42.6599640   8.8692285  29.1073185  52.4601949  11.8746296
  29.8376573  52.1987237  12.4354000  28.4980130  51.7230671  11.9148364
  27.1888482  50.6009812  12.4720748  26.4621646  50.4665777  11.8637239
  26.7735769  50.9086640  13.2777466  15.0118658  54.3199741  20.2368121
  15.9321668  54.4978340  20.4308167  14.9768241  53.3755787  20.0847820
   8.0080731  52.2300776  12.8790902   8.2266741  53.1617884  12.8978936
   8.4206505  51.8708751  13.6645706  14.9284949  42.7368861   4.8666590
  14.1185677  42.3915946   5.2421836  15.6169366  42.4276405   5.4554202
  16.8575497  41.8146908   6.4890887  17.4106536  42.2342362   7.1480910
  17.0945583  40.8882656   6.5313843  12.8808596  47.8033982  22.2693651
  12.7805323  48.7528339  22.2005742  12.6630138  47.4752221  21.3969721
  20.2354304  43.9247433   5.9969551  19.6552973  44.5832237   5.6147603
  19.9690237  43.1024778   5.5856969  18.6857870  43.3252491   8.1990871
  19.1857649  43.4369026   7.3905190  19.3293478  43.0213544   8.8391680
  12.7439866  51.2331121  21.0858712  12.2606948  52.0331481  21.2922601
  12.8300805  51.2439066  20.1326156   8.6713204  55.1235655  13.1227146
   9.6256457  55.0919598  13.0557078   8.4725727  54.6626279  13.9377372
   9.2612586  53.6936771  15.6897944  10.0805475  54.1880850  15.7132781
   9.5349394  52.7768740  15.6615511  19.0179182  46.0847524   5.0525899
  18.1305037  46.3697174   4.8346094  19.4333171  45.9241287   4.2053176
  22.3693718  46.1094045   8.7680239  23.1454108  46.5990497   9.0404855
  21.6441852  46.5352099   9.2252108  24.8066277  46.8221664   9.8254179
  25.4010768  46.5817400   9.1147487  24.8792861  46.1028795  10.4527715
  18.9920206  51.6002060   5.2676189  18.9355407  52.0570611   4.4283822
  19.5448548  50.8392744   5.0899032  22.8025012  47.3891792   6.0926309
  22.5461946  46.9888427   6.9234517  22.1777880  48.1035586   5.9676448
  27.1137350  50.1287865   8.5997600  26.5536908  50.1981054   9.3729162
  26.5080853  49.9528849   7.8797097  19.7254985  52.7906841   2.5628719
  19.6703789  52.6251112   1.6217163  19.1001040  53.4982874   2.7190908
   4.5147500  48.0274905  16.3890141   5.1606364  47.5173859  16.8777366
   4.3064651  48.7643587  16.9633566  17.0400892  55.0955753  21.8882281
  17.9092052  55.2696405  21.5268916  16.5607644  55.9150170  21.7658011
  13.0351111  42.2914950   2.1414037  13.0229780  43.2356790   2.2982308
  13.9274533  42.1085095   1.8473498  11.2087073  62.2152854  13.5671715
  12.1114319  62.2476464  13.8838210  10.9824443  61.2853305  13.5818051
  16.8503230  38.8857727   6.3959974  16.0835626  38.3316213   6.5416656
  17.2613935  38.9579595   7.2574125   8.8544991  45.1742522  20.4865155
   9.7176453  44.8179327  20.6968480   8.2810402  44.8356417  21.1740559
  28.6993368  66.8044379  11.2927556  29.3371778  66.6851126  10.5890896
  28.5814211  67.7525223  11.3515508  25.5083074  66.7571807  11.2289081
  25.1701586  66.6412872  10.3409616  26.3772843  66.3562972  11.2090087
  25.9902857  67.9106659  17.1875286  25.9791498  67.5159457  16.3155790
  26.1523497  67.1772731  17.7809058  23.6366325  68.0720619  12.7255830
  24.2329898  67.8476641  12.0112793  23.6941297  67.3305364  13.3281278
  28.2534637  64.5295833   8.3680764  29.0397726  64.1115256   8.0171181
  28.5173341  65.4341925   8.5362413  33.6543064  64.4671066   9.2713743
  34.3868236  63.8970283   9.5051572  32.8982419  64.0792666   9.7120248
  25.2719183  66.8898307   6.4677085  24.9077391  66.3628928   7.1790007
  26.1286299  66.4996776   6.2943571  31.1768484  58.1792640  13.7308351
  30.8451809  59.0488051  13.5069566  30.5814097  57.8628924  14.4102382
  21.1212485  66.8318983   9.1640968  20.1962982  66.6995197   9.3718660
  21.3696898  67.6113202   9.6610911  31.0697147  62.8987726  10.8101701
  30.1614025  62.8303135  10.5160462  31.0184743  63.3759671  11.6383527
  25.1438013  64.3177372  18.7536599  24.3671347  64.8771292  18.7439463
  25.7828576  64.8034155  19.2751469  32.9358794  61.1004164  12.5879575
  32.2933174  61.3936698  11.9419370  32.4313722  60.9857085  13.3932772
  23.3984385  67.1262825  18.3154566  24.1399070  67.6647869  18.0389389
  22.6921371  67.7529114  18.4726117  28.8739725  69.2691965  16.9126727
  29.2823081  68.8274376  16.1681359  28.1516987  68.6944593  17.1660920
  25.2270795  64.2064572  14.2860284  26.0731990  64.6303986  14.4294933
  25.1669433  63.5498197  14.9798847  29.1968540  69.8293156  10.6679016
  28.5677402  69.9938870   9.9655084  28.8094202  70.2434766  11.4389980
  28.3770240  61.8668941  15.9441458  28.1331172  62.6211001  15.4075733
  28.6530171  62.2454288  16.7788705  30.3308703  68.4107553  14.6218723
  30.5425599  69.0539313  13.9453104  30.2838452  67.5769870  14.1540653
  27.9334932  61.0225374  11.5255295  27.0719411  61.3206627  11.8172033
  27.9597367  61.2395773  10.5936328  22.1345749  64.2802473  19.1169876
  21.5044410  64.9618754  19.3505272  22.0281837  64.1685555  18.1723014
  31.4454531  71.2879508  12.7941081  32.2671975  70.8859696  12.5123762
  31.4416934  71.1847743  13.7457196  15.7128425  64.2004760  12.4750791
  15.9636463  65.0851770  12.7408366  16.2487973  64.0209361  11.7025882
  21.4126492  58.5823239  21.4795127  21.0193438  58.0289438  22.1542771
  22.2292632  58.8933818  21.8701644  24.3294453  59.9981118  19.0715383
  25.0704166  60.5988271  18.9919846  24.5612376  59.2558756  18.5133426
  19.4735791  65.1837485  17.3493613  19.3589306  64.2822743  17.6500712
  18.6180309  65.4301182  16.9978429  28.2751616  56.0262221  13.3479665
  27.9315885  56.9163863  13.2718775  28.6430578  55.8363879  12.4849250
  25.8249010  60.8620533   6.9137338  24.9690606  60.4727383   6.7342977
  26.2375961  60.9412494   6.0537124  27.3548156  58.3966876  11.3128898
  26.8512952  58.3597011  10.4996703  27.6478763  59.3059619  11.3725555
  23.5991042  58.4805606  10.3195080  24.4644039  58.2848415   9.9600969
  23.6668551  58.2515958  11.2464437  31.4527480  68.2437168  10.4471881
  30.7951154  68.9336429  10.5352010  32.2567879  68.6333600  10.7905868
  21.2053361  60.7107814   7.6911447  21.7797113  60.4882995   6.9584640
  21.7924344  60.7796508   8.4440048  30.2632938  66.5981541   8.4975823
  30.7764820  67.2311533   8.9997533  30.9134162  65.9982736   8.1319183
  23.5076029  57.5849063   6.4186516  22.8540441  57.2698080   5.7943131
  23.4656503  56.9624803   7.1446339  26.7413769  64.0730996  10.7434164
  25.8236331  64.2945943  10.5855852  27.1573913  64.1477307   9.8845871
  29.9727654  62.5079528   7.8555633  29.2350411  61.9956914   8.1865876
  30.2254428  62.0679910   7.0438910  30.0739282  55.2855780   8.4497403
  30.3798158  54.4253144   8.1623318  30.7991886  55.8773400   8.2496396
  24.3460361  65.5809573   8.9573594  24.4008971  64.6283410   8.8816070
  23.5351563  65.7369012   9.4414892  22.2852721  64.1986633   6.7163972
  21.4720587  64.4980804   7.1229165  22.7811715  63.8042322   7.4338455
  27.8826933  64.6628458  15.5478866  28.2376321  64.8899931  16.4073332
  28.5299064  64.9946834  14.9256122  21.7766796  61.7704989  12.3325207
  22.4166175  61.6293748  11.6348171  20.9444327  61.4839502  11.9563809
  20.2520338  63.1543071  14.2797019  20.9243391  62.9460433  13.6309668
  19.4250124  62.9565157  13.8402251  34.5009599  69.8947121  13.7972352
  34.6945489  70.7992932  14.0431627  34.4010217  69.4354540  14.6310937
  26.1545910  59.7805012  16.2962680  25.5073825  60.4794961  16.2027156
  26.9246925  60.2141156  16.6638928  29.5624708  70.0453864  19.3713233
  29.4110214  69.8164416  18.4543317  29.5529387  71.0024465  19.3844578
  26.3310044  67.6185777  14.3559499  27.2602104  67.7696936  14.1828467
  25.9101074  67.7069797  13.5008146  20.6547835  66.4285674  15.0399456
  20.5167633  65.6965913  15.6410995  21.5652758  66.3394574  14.7583644
  23.2830136  66.1405633  14.5283136  23.9929754  65.4998825  14.4869754
  23.2399444  66.3918528  15.4509316  21.9959070  63.1270851  16.3478775
  21.4596427  62.6761589  17.0000371  21.4075778  63.2616760  15.6049239
  31.2734322  71.0412570  15.6803694  30.3861100  70.7038492  15.8030093
  31.8432873  70.3095602  15.9172460  17.7298191  62.2626859  13.4331770
  17.6456380  61.6552528  12.6982179  16.9080897  62.7535877  13.4341266
  27.9021905  60.7480422   8.8001965  28.3990604  59.9950385   8.4803035
  27.1308886  60.7844739   8.2345174  35.7551662  66.4520788  10.4420256
  35.7441538  67.3345503  10.0714189  34.8869042  66.0992339  10.2474793
  24.4856873  62.8897805   8.5273649  24.1154661  62.3368846   9.2154555
  24.9815966  62.2855939   7.9748649  30.3440900  57.7150016  10.9481323
  29.4303979  57.9454243  11.1163530  30.7734001  57.7988460  11.7995356
  30.1147358  65.9039908  13.4481217  29.4618808  66.1515815  12.7933670
  30.4927738  65.0904046  13.1143695  26.1634931  66.6459719  19.9347255
  25.4875568  66.5453848  20.6049630  26.9862565  66.4898932  20.3983252
  19.8822207  60.3001796  14.7726755  19.9463534  61.1616627  14.3604153
  19.8189327  59.6875798  14.0399114  19.3574480  62.3724928  18.4199790
  19.9846518  61.9902006  19.0337314  18.5002399  62.1539130  18.7855482
  19.6634269  62.2557354  10.3345693  18.9420855  62.8693322  10.1953166
  20.4527525  62.7915119  10.2562339  22.4660583  59.5911781  16.6086345
  22.9894985  59.8374077  17.3712654  22.2472916  60.4231815  16.1889482
  23.6713128  60.5325476  14.2936015  23.3309948  59.7333289  14.6956695
  22.9652134  60.8327187  13.7212848  24.3229600  57.6174788  12.7463338
  25.1455669  57.1435266  12.6242229  24.5667663  58.3965272  13.2462025
  27.1068957  61.3508196   3.9784572  27.3232572  62.2332833   3.6773400
  26.6263024  60.9594409   3.2490214  21.8468179  64.3093909  10.5555317
  21.7012759  64.6234212  11.4479598  21.3693382  64.9278809  10.0026216
  23.7064561  61.2996457  10.6036206  23.6926130  60.4037550  10.2668504
  24.4236990  61.3067121  11.2374492  25.5590692  61.7333797  12.6489334
  25.3008470  62.6550868  12.6473664  25.0275733  61.3364232  13.3389798
  23.1101457  60.1810837   5.8723777  23.2317369  59.2527483   6.0714664
  22.8203500  60.1949523   4.9602092  25.9792648  57.8665748   9.0090496
  26.0014345  57.9305081   8.0542476  26.3960707  57.0270256   9.2031003
  17.1079863  65.9769150  16.3873135  16.3661599  66.1251785  16.9737765
  16.7872607  66.2377415  15.5239884  22.5942537  61.6942834  20.0813709
  22.6430692  62.5704957  19.6991479  23.1365051  61.1520228  19.5085352
  33.0797383  72.2383958  19.3614846  32.2892926  72.2208097  18.8219346
  32.8430737  72.7772251  20.1163883  33.1995258  69.0876424  16.6747575
  33.2493263  68.9226432  17.6163098  33.0909181  68.2203683  16.2845456
  30.4899020  65.0707352  17.9906882  31.3908883  64.9313817  17.6990879
  30.5646995  65.2361807  18.9305059  24.8241825  62.4474207  16.8360068
  23.9545135  62.7407773  16.5642656  25.0601306  63.0314652  17.5567331
  34.7013454  71.5073366  16.9189596  34.4098263  71.8703346  17.7553057
  34.0885586  70.7940374  16.7402928  32.9500643  66.6305980  15.3869654
  33.4254764  66.8233627  14.5788506  32.0266208  66.6865166  15.1413038
  27.5280859  58.6653824  14.3525488  28.0462803  59.4014851  14.0271977
  27.1735992  58.9717817  15.1872247  27.7793453  55.0854106   9.8726385
  28.0595207  54.4177295  10.4986811  28.5644060  55.2783202   9.3601049
  31.6502312  63.5071740  13.6197960  32.6019735  63.6069838  13.6410184
  31.4805762  62.7150009  14.1296044  29.6716691  60.5927324  13.8057361
  29.0766623  60.8732336  13.1103849  29.3866388  61.0821224  14.5774102
  34.1290389  66.7277860  12.7340260  34.0966710  65.7893861  12.9199943
  34.7391013  66.8061897  12.0006084  34.2784878  63.5188903  12.7798543
  33.7623927  62.7347360  12.5928472  35.1624827  63.1907620  12.9445062
  31.9395605  57.2629919   8.7394355  31.7420426  56.9545007   9.6237687
  32.5495310  57.9891558   8.8692285  38.0282236  65.9301729  12.4720748
  37.3015400  65.7957694  11.8637239  37.6129523  66.2378558  13.2777466
  25.8512413  69.6491659  20.2368121  26.7715422  69.8270258  20.4308167
  25.8161996  68.7047704  20.0847820  25.7678703  58.0660779   4.8666590
  24.9579432  57.7207864   5.2421836  26.4563120  57.7568323   5.4554202
  27.6969252  57.1438826   6.4890887  28.2500290  57.5634279   7.1480910
  27.9339338  56.2174574   6.5313843  23.7202351  63.1325900  22.2693651
  23.6199078  64.0820257  22.2005742  23.5023893  62.8044138  21.3969721
  31.0748059  59.2539351   5.9969551  30.4946728  59.9124155   5.6147603
  30.8083991  58.4316696   5.5856969  29.5251625  58.6544409   8.1990871
  30.0251403  58.7660943   7.3905190  30.1687233  58.3505462   8.8391680
  23.5833621  66.5623038  21.0858712  23.1000703  67.3623398  21.2922601
  23.6694560  66.5730983  20.1326156  33.2087473  61.4385962   8.7680239
  33.9847863  61.9282415   9.0404855  32.4835607  61.8644017   9.2252108
  35.6460031  62.1513582   9.8254179  36.2404522  61.9109318   9.1147487
  35.7186615  61.4320712  10.4527715  15.3541255  63.3566823  16.3890141
  16.0000118  62.8465777  16.8777366  15.1458406  64.0935505  16.9633566
  23.8744865  57.6206868   2.1414037  23.8623535  58.5648708   2.2982308
  24.7668287  57.4377013   1.8473498  27.6896985  54.2149644   6.3959974
  26.9229380  53.6608131   6.5416656  28.1007690  54.2871513   7.2574125
  19.6938746  60.5034440  20.4865155  20.5570207  60.1471245  20.6968480
  19.1204156  60.1648335  21.1740559  15.7133875  34.8025431   5.6726420
  15.2697730  34.0161809   5.3547325  16.3751089  34.9904581   5.0070311
  17.8115114  35.0828231   3.7007821  17.7933589  35.9037112   3.2088091
  18.7335034  34.9582306   3.9257963  14.2688168  32.5972360   4.5431330
  14.8016504  31.8360648   4.3130638  13.7402249  32.3046012   5.2855484
  23.6615846  31.5717326   0.5217659  23.8551736  32.4763137   0.7676934
  23.5616464  31.1124745   1.3556244  18.7230954  31.7224069   6.0958540
  18.5716461  31.4934620   5.1788623  18.7135634  32.6794670   6.1089885
  20.4323161  34.7543191   4.1735021  20.3735707  34.0702411   3.5065604
  20.8342679  35.4962181   3.7215647  20.4340568  32.7182775   2.4049001
  19.5467347  32.3808697   2.5275400  21.0039119  31.9865806   2.6417766
  16.4240405  37.2771062   1.5268403  17.1368377  37.9118526   1.4544304
  15.9330434  37.3734928   0.7108405  15.3241178  28.3229924   6.6592561
  14.6481815  28.2224053   7.3294936  16.1468812  28.1669137   7.1228558
  14.0663961  39.6296851   0.8950177  14.6182269  39.7928473   1.6599262
  14.4070154  40.2201289   0.2230202  18.9174835  34.4558109   6.7498832
  19.4614739  35.0688067   6.2553786  18.3361680  35.0137687   7.2665845
  14.2129772  37.1955333   2.9098832  14.5216898  36.9504479   3.7821531
  15.0105254  37.4001971   2.4217702  22.2403629  33.9154163   6.0860153
  21.4499173  33.8978301   5.5464652  22.0036984  34.4542456   6.8409189
  22.3601504  30.7646629   3.3992881  22.4099509  30.5996636   4.3408404
  22.2515428  29.8973888   3.0090762  23.8619701  33.1843571   3.6434903
  23.5704510  33.5473551   4.4798364  23.2491833  32.4710579   3.4648235
  15.0118660  31.3261864   6.9613427  15.9321669  31.5040463   7.1553474
  14.9768243  30.3817909   6.8093127  12.7439868  28.2393243   7.8104019
  12.2606949  29.0393603   8.0167908  12.8300807  28.2501188   6.8571463
  17.0400894  32.1017875   8.6127588  17.9092053  32.2758528   8.2514223
  16.5607645  32.9212292   8.4903317  28.6993369  43.8106501  -1.9827137
  29.3371779  43.6913249  -2.6863797  28.5814212  44.7587345  -1.9239185
  25.5083076  43.7633929  -2.0465613  25.1701587  43.6474994  -2.9345078
  26.3772844  43.3625095  -2.0664606  25.9902859  44.9168781   3.9120593
  25.9791499  44.5221579   3.0401097  26.1523498  44.1834854   4.5054364
  22.7110120  47.7005893   2.8599777  22.4199986  48.6051524   2.7446443
  23.3467104  47.7422421   3.5743846  23.6366327  45.0782742  -0.5498863
  24.2329899  44.8538764  -1.2641900  23.6941298  44.3367487   0.0526584
  28.2534638  41.5357955  -4.9073929  29.0397727  41.1177378  -5.2583512
  28.5173342  42.4404047  -4.7392281  33.6543065  41.4733188  -4.0040951
  34.3868237  40.9032405  -3.7703121  32.8982421  41.0854789  -3.5634445
  25.2719185  43.8960430  -6.8077608  24.9077392  43.3691051  -6.0964687
  26.1286301  43.5058899  -6.9811123  31.1768485  35.1854763   0.4553658
  30.8451810  36.0550173   0.2314873  30.5814099  34.8691047   1.1347688
  27.6700005  47.3867308  -0.1450429  27.3700728  48.2892347  -0.2534622
  27.3251064  47.1199492   0.7070724  21.1212486  43.8381105  -4.1113725
  20.1962983  43.7057319  -3.9036033  21.3696900  44.6175325  -3.6143783
  31.0697149  39.9049849  -2.4652992  30.1614026  39.8365257  -2.7594231
  31.0184744  40.3821794  -1.6371167  25.1438014  41.3239494   5.4781905
  24.3671348  41.8833414   5.4684770  25.7828577  41.8096277   5.9996775
  32.9358795  38.1066287  -0.6875118  32.2933175  38.3998820  -1.3335324
  32.4313724  37.9919207   0.1178079  23.3984387  44.1324948   5.0399872
  24.1399071  44.6709992   4.7634696  22.6921372  44.7591236   5.1971424
  28.8739726  46.2754088   3.6372034  29.2823082  45.8336499   2.8926666
  28.1516988  45.7006716   3.8906227  25.2270796  41.2126695   1.0105591
  26.0731992  41.6366108   1.1540240  25.1669434  40.5560319   1.7044154
  29.1968541  46.8355279  -2.6075677  28.5677403  47.0000993  -3.3099610
  28.8094203  47.2496888  -1.8364713  28.3770242  38.8731063   2.6686764
  28.1331174  39.6273124   2.1321040  28.6530172  39.2516411   3.5034011
  30.3308705  45.4169676   1.3464030  30.5425600  46.0601435   0.6698411
  30.2838453  44.5831992   0.8785960  27.9334933  38.0287496  -1.7499398
  27.0719413  38.3268750  -1.4582660  27.9597368  38.2457895  -2.6818365
  21.6420584  46.1201168  -2.4045829  22.2121941  46.5488437  -3.0428345
  22.2328696  45.8383753  -1.7061643  22.1345750  41.2864596   5.8415182
  21.5044411  41.9680877   6.0750579  22.0281838  41.1747677   4.8968320
  31.4454532  48.2941631  -0.4813613  32.2671976  47.8921818  -0.7630931
  31.4416935  48.1909865   0.4702503  25.2111136  47.8425674   1.6747098
  25.2755568  48.3046082   2.5105270  24.5022060  47.2123039   1.8029408
  15.7128426  41.2066882  -0.8003903  15.9636464  42.0913892  -0.5346327
  16.2487974  41.0271484  -1.5728811  21.4126493  35.5885362   8.2040433
  21.0193439  35.0351560   8.8788077  22.2292634  35.8995940   8.5946951
  24.3294454  37.0043241   5.7960690  25.0704168  37.6050394   5.7165152
  24.5612377  36.2620879   5.2378732  19.4735792  42.1899608   4.0738920
  19.3589307  41.2884865   4.3746018  18.6180310  42.4363305   3.7223736
  26.5527630  50.1317348   5.6726420  26.1091484  49.3453727   5.3547325
  27.2144844  50.3196499   5.0070311  28.6508868  50.4120148   3.7007821
  28.6327343  51.2329029   3.2088091  29.5728788  50.2874223   3.9257963
  25.1081922  47.9264278   4.5431330  25.6410259  47.1652566   4.3130638
  24.5796003  47.6337930   5.2855484  28.2751617  33.0324344   0.0724972
  27.9315887  33.9225985  -0.0035918  28.6430580  32.8426001  -0.7905443
  27.3548158  35.4028999  -1.9625795  26.8512953  35.3659134  -2.7757990
  27.6478764  36.3121742  -1.9029139  31.4527481  45.2499291  -2.8282812
  30.7951155  45.9398552  -2.7402683  32.2567880  45.6395723  -2.4848826
  30.2632940  43.6043663  -4.7778870  30.7764821  44.2373655  -4.2757160
  30.9134164  43.0044859  -5.1435510  26.7413771  41.0793119  -2.5320530
  25.8236332  41.3008066  -2.6898842  27.1573914  41.1539429  -3.3908822
  29.9727655  39.5141651  -5.4199060  29.2350412  39.0019037  -5.0888818
  30.2254429  39.0742032  -6.2315783  24.3460363  42.5871696  -4.3181100
  24.4008972  41.6345532  -4.3938623  23.5351565  42.7431135  -3.8339801
  27.8826934  41.6690580   2.2724173  28.2376322  41.8962053   3.1318639
  28.5299065  42.0008957   1.6501428  21.7766797  38.7767111  -0.9429486
  22.4166177  38.6355870  -1.6406523  20.9444328  38.4901625  -1.3190884
  27.3721946  50.4587637  -0.4782126  27.4258968  51.0278573   0.2895590
  26.5036727  50.6289522  -0.8428089  20.2520339  40.1605193   1.0042325
  20.9243392  39.9522555   0.3554974  19.4250125  39.9627279   0.5647558
  34.5009600  46.9009244   0.5217659  34.6945490  47.8055054   0.7676934
  34.4010218  46.4416663   1.3556244  26.1545911  36.7867134   3.0207986
  25.5073826  37.4857084   2.9272463  26.9246926  37.2203278   3.3884234
  29.5624709  47.0515986   6.0958540  29.4110215  46.8226538   5.1788623
  29.5529388  48.0086588   6.1089885  26.3310045  44.6247899   1.0804806
  27.2602105  44.7759059   0.9073773  25.9101075  44.7131920   0.2253453
  25.1298377  48.6498564  -1.1496656  24.9909463  48.2817348  -0.2770718
  24.3412973  49.1646203  -1.3212699  26.6803592  48.0280166  -3.7607819
  26.3453425  47.9880936  -2.8650169  26.1807538  47.3624882  -4.2337408
  20.6547836  43.4347796   1.7644763  20.5167634  42.7028035   2.3656302
  21.5652760  43.3456696   1.4828950  23.2830137  43.1467756   1.2528442
  23.9929755  42.5060948   1.2115061  23.2399445  43.3980651   2.1754623
  31.2716916  50.0835109   4.1735021  31.2129462  49.3994329   3.5065604
  31.6736434  50.8254099   3.7215647  21.9959071  40.1332974   3.0724082
  21.4596428  39.6823712   3.7245678  21.4075779  40.2678882   2.3294546
  31.2734323  48.0474693   2.4049001  30.3861102  47.7100615   2.5275400
  31.8432874  47.3157724   2.6417766  17.7298192  39.2688981   0.1577076
  17.6456381  38.6614651  -0.5772514  16.9080899  39.7598000   0.1586573
  24.8035476  52.7076145  -0.6289756  24.7305648  53.5131117  -0.1170451
  24.3612869  52.9068111  -1.4541734  35.7551663  43.4582910  -2.8334437
  35.7441540  44.3407626  -3.2040504  34.8869043  43.1054461  -3.0279900
  27.2634160  52.6062979   1.5268403  27.9762132  53.2410444   1.4544304
  26.7724188  52.7026845   0.7108405  22.3146073  50.3557423   2.3473974
  23.0155533  50.9893906   2.5003368  21.8441188  50.6972154   1.5869613
  30.3440901  34.7212138  -2.3273370  29.4303981  34.9516365  -2.1591163
  30.7734002  34.8050582  -1.4759338  30.1147359  42.9102030   0.1726524
  29.4618809  43.1577938  -0.4821023  30.4927739  42.0966168  -0.1610999
  26.1634932  43.6521841   6.6592561  25.4875569  43.5515971   7.3294936
  26.9862566  43.4961055   7.1228558  24.9057715  54.9588769   0.8950177
  25.4576023  55.1220390   1.6599262  25.2463909  55.5493207   0.2230202
  19.3574481  39.3787051   5.1445096  19.9846520  38.9964128   5.7582620
  18.5002400  39.1601253   5.5100789  29.7568589  49.7850026   6.7498832
  30.3008493  50.3979985   6.2553786  29.1755434  50.3429605   7.2665845
  30.1061011  50.7079764  -0.4906591  29.1591346  50.5885116  -0.5628264
  30.4543784  49.8202262  -0.4080329  22.4660584  36.5973903   3.3331651
  22.9894986  36.8436200   4.0957961  22.2472917  37.4293938   2.9134789
  23.6713129  37.5387598   1.0181322  23.3309950  36.7395411   1.4202002
  22.9652136  37.8389309   0.4458155  24.3229601  34.6236911  -0.5291355
  25.1455670  34.1497389  -0.6512465  24.5667665  35.4027395  -0.0292669
  21.8468180  41.3156031  -2.7199376  21.7012761  41.6296335  -1.8275095
  21.3693383  41.9340932  -3.2728478  25.5590693  38.7395920  -0.6265359
  25.3008471  39.6612990  -0.6281029  25.0275734  38.3426354   0.0635105
  16.3213842  43.8561376   0.2188285  15.7767310  44.6321184   0.3508559
  17.1993192  44.2032180   0.0607406  17.1079864  42.9831272   3.1118442
  16.3661600  43.1313907   3.6983072  16.7872608  43.2439538   2.2485191
  25.0523526  52.5247250   2.9098832  25.3610653  52.2796397   3.7821531
  25.8499009  52.7293889   2.4217702  22.5942538  38.7004957   6.8059016
  22.6430694  39.5767080   6.4236785  23.1365052  38.1582350   6.2330659
  33.0797384  49.2446080   6.0860153  32.2892928  49.2270219   5.5464652
  32.8430738  49.7834374   6.8409189  33.1995259  46.0938547   3.3992881
  33.2493264  45.9288554   4.3408404  33.0909182  45.2265806   3.0090762
  30.4899021  42.0769475   4.7152188  31.3908884  41.9375940   4.4236186
  30.5646996  42.2423930   5.6550366  24.8241827  39.4536329   3.5605374
  23.9545136  39.7469896   3.2887963  25.0601307  40.0376774   4.2812638
  34.7013456  48.5135488   3.6434903  34.4098264  48.8765469   4.4798364
  34.0885587  47.8002496   3.4648235  32.9500644  43.6368103   2.1114961
  33.4254766  43.8295749   1.3033812  32.0266209  43.6927289   1.8658345
  27.5280860  35.6715946   1.0770795  28.0462804  36.4076973   0.7517283
  27.1735993  35.9779940   1.9117554  31.6502313  40.5133863   0.3443267
  32.6019736  40.6131961   0.3655491  31.4805763  39.7212131   0.8541351
  29.6716692  37.5989446   0.5302667  29.0766625  37.8794459  -0.1650844
  29.3866389  38.0883347   1.3019409  34.1290391  43.7339983  -0.5414434
  34.0966711  42.7955983  -0.3554750  34.7391014  43.8124019  -1.2748609
  34.2784879  40.5251026  -0.4956151  33.7623928  39.7409483  -0.6826222
  35.1624828  40.1969743  -0.3309631  38.0282238  42.9363852  -0.8033946
  37.3015401  42.8019817  -1.4117454  37.6129525  43.2440681   0.0022772
  25.8512414  46.6553782   6.9613427  26.7715424  46.8332381   7.1553474
  25.8161997  45.7109827   6.8093127  18.8474487  44.5654816  -0.3963792
  19.0660496  45.4971924  -0.3775758  19.2600261  44.2062791   0.3891012
  23.7202352  40.1388022   8.9938957  23.6199079  41.0882379   8.9251048
  23.5023894  39.8106261   8.1215027  23.5833622  43.5685161   7.8104019
  23.1000704  44.3685521   8.0167908  23.6694561  43.5793106   6.8571463
  19.5106960  47.4589696  -0.1527547  20.4650213  47.4273638  -0.2197616
  19.3119483  46.9980319   0.6622679  20.1006342  46.0290812   2.4143250
  20.9199231  46.5234890   2.4378088  20.3743149  45.1122780   2.3860818
  33.2087474  38.4448085  -4.5074455  33.9847864  38.9344537  -4.2349838
  32.4835608  38.8706139  -4.0502585  35.6460033  39.1575704  -3.4500514
  36.2404523  38.9171440  -4.1607206  35.7186616  38.4382835  -2.8226978
  15.3541256  40.3628946   3.1135447  16.0000120  39.8527900   3.6022673
  15.1458407  41.0997627   3.6878873  27.8794648  47.4309793   8.6127588
  28.7485808  47.6050445   8.2514223  27.4001400  48.2504210   8.4903317
  22.0480828  54.5506894   0.2917022  22.9508075  54.5830504   0.6083517
  21.8218198  53.6207345   0.3063357  19.6938747  37.5096563   7.2110462
  20.5570208  37.1533368   7.4213786  19.1204158  37.1710457   7.8985866
  35.9831769  56.6531412   5.4781905  35.2065103  57.2125332   5.4684770
  36.6222332  57.1388195   5.9996775  32.9739505  56.6156513   5.8415182
  32.3438166  57.2972794   6.0750579  32.8675593  56.5039595   4.8968320
  32.2520248  50.9177279   8.2040433  31.8587193  50.3643478   8.8788077
  33.0686388  51.2287858   8.5946951  35.1688209  52.3335158   5.7960690
  35.9097922  52.9342312   5.7165152  35.4006132  51.5912796   5.2378732
  30.3129547  57.5191526   4.0738920  30.1983062  56.6176783   4.3746018
  29.4574064  57.7655222   3.7223736  36.9939665  52.1159052   3.0207986
  36.3467581  52.8149002   2.9272463  37.7640681  52.5495196   3.3884234
  32.8352825  55.4624891   3.0724082  32.2990182  55.0115630   3.7245678
  32.2469534  55.5970800   2.3294546  28.5691947  54.5980899   0.1577076
  28.4850135  53.9906568  -0.5772514  27.7474653  55.0889917   0.1586573
  37.0028687  58.9813759   6.6592561  36.3269324  58.8807888   7.3294936
  37.8256321  58.8252973   7.1228558  30.7215963  52.6355836   1.4972062
  30.7857289  53.4970667   1.0849460  30.6583083  52.0229838   0.7644420
  30.1968235  54.7078969   5.1445096  30.8240274  54.3256046   5.7582620
  29.3396154  54.4893171   5.5100789  33.3054339  51.9265821   3.3331651
  33.8288740  52.1728117   4.0957961  33.0866672  52.7585856   2.9134789
  27.9473618  58.3123190   3.1118442  27.2055354  58.4605825   3.6983072
  27.6266363  58.5731455   2.2485191  33.4336293  54.0296875   6.8059016
  33.4824448  54.9058998   6.4236785  33.9758807  53.4874268   6.2330659
  35.6635581  54.7828247   3.5605374  34.7938891  55.0761813   3.2887963
  35.8995061  55.3668692   4.2812638  34.5596107  55.4679940   8.9938957
  34.4592833  56.4174297   8.9251048  34.3417649  55.1398179   8.1215027
  34.4227377  58.8977079   7.8104019  33.9394458  59.6977439   8.0167908
  34.5088316  58.9085024   6.8571463  26.1935010  55.6920863   3.1135447
  26.8393874  55.1819817   3.6022673  25.9852162  56.4289545   3.6878873
  30.5332501  52.8388480   7.2110462  31.3963963  52.4825285   7.4213786
  29.9597912  52.5002375   7.8985866  37.0028688  35.9875882  -6.6162132
  36.3269325  35.8870011  -5.9459757  37.8256322  35.8315095  -6.1526135
  34.4227378  35.9039201  -5.4650674  33.9394460  36.7039561  -5.2586785
  34.5088317  35.9147146  -6.4183230
  72.7613345  72.7613345  72.7613345 109.4712190 109.4712190 109.4712190
