default_name
 33389
  37.0222491  14.6983392  45.7545304  36.3564217  14.0978480  46.2194876
  37.9348661  14.5459869  46.1595233  36.8924671  14.6153317  44.7563490
  36.6756131  16.1201425  46.0823046  37.4861966  16.6457786  46.5870424
  36.3739646  16.8432005  44.7430001  35.5581271  16.3337615  44.2301833
  36.0880074  17.8757679  44.9433329  37.2635521  16.8287344  44.1132986
  35.4997760  16.1256314  47.0628407  34.8800090  15.0667494  47.1791322
  35.1655797  17.1749116  47.8158452  36.0002668  18.3646536  47.9452955
  36.0027740  18.8865061  46.9883399  37.0142352  18.0465527  48.1877389
  35.3670189  19.1904273  49.0614626  35.5052016  20.2556562  48.8762812
  35.8035890  18.9301682  50.0257100  33.8848107  18.8004896  49.0085271
  33.3142597  19.4723632  48.3673123  33.4603109  18.8094909  50.0124288
  33.8468773  17.3649895  48.4321994  33.7708595  16.6562038  49.2567856
  32.6760698  17.1553637  47.4712869  32.8554011  17.3124282  46.2644618
  31.4699096  16.8035145  47.9543997  31.3980877  16.5191715  48.9208830
  30.2784414  16.7421277  47.1290761  30.5124165  16.1314954  46.2570193
  29.1545439  16.0524390  47.9258180  28.9028460  16.6566766  48.7973943
  28.2737417  15.9439003  47.2929617  29.4907644  15.0680975  48.2515892
  29.8109769  18.1056314  46.6210281  29.2308339  18.2155096  45.5385981
  30.0328792  19.1816249  47.3946866  30.4877513  19.0722182  48.2897960
  29.5970719  20.4972925  47.0071149  29.6477395  20.5949585  45.9226827
  28.1346419  20.7129664  47.4542527  28.0693914  20.6272378  48.5389154
  27.8031316  21.7051812  47.1481302  27.4977823  19.9589148  46.9917431
  30.4923233  21.5665122  47.6026686  31.0469843  21.3975910  48.6926878
  30.6597252  22.6972880  46.8877094  30.1977576  22.7502499  45.9911157
  31.4528508  23.8349095  47.3224105  31.5229711  23.8596316  48.4098714
  32.8775232  23.8250084  46.7374835  32.7970620  23.7728751  45.6517085
  33.6814215  25.0816901  47.1337317  33.7627069  25.1342641  48.2194249
  34.6788383  25.0281329  46.6973926  33.1712138  25.9713686  46.7645949
  33.6543894  22.5682177  47.1868719  33.1311791  21.6753362  46.8446505
  34.6567410  22.5877403  46.7590754  33.7243396  22.5532670  48.2745227
  30.7320590  25.0865354  46.8502190  30.3803983  25.1815684  45.6741916
  30.5014144  26.0858744  47.7281431  30.5717806  25.8758648  48.7135588
  30.0458433  27.4036908  47.3379690  30.2141418  27.5490495  46.2708956
  28.5293880  27.5702198  47.6283903  28.0124215  26.6907821  47.2444186
  28.4186971  27.6118748  48.7119550  27.9319748  28.8131931  47.0136336
  26.6765130  28.8537574  46.9605766  28.6522742  29.7555531  46.5959837
  30.9564820  28.3984989  48.0541715  30.9705648  28.4893014  49.2959664
  31.7933631  29.1446298  47.3111589  31.8359450  28.9585197  46.3193680
  32.7037751  30.1291983  47.8661624  33.0720903  29.7784675  48.8302325
  33.9141564  30.3670455  46.9310267  33.6038682  30.5623635  45.9045418
  34.4779793  31.2202412  47.3082018  34.8773306  29.2009798  46.8777429
  35.1244293  28.3161953  45.8668544  34.5271268  28.4473789  44.9645682
  36.1129433  27.4157514  46.2212370  36.5012472  26.6778033  45.6513667
  36.5166975  27.7365919  47.4994971  37.5085418  27.1548793  48.2865659
  38.0559735  26.3000108  47.8895556  37.7391400  27.7156121  49.5535719
  38.5109677  27.2990842  50.2007863  36.9929040  28.8058628  50.0051469
  37.1658235  29.2280767  50.9950630  36.0000763  29.3913527  49.2029202
  35.4458856  30.2557482  49.5686986  35.7876718  28.8292989  47.9411338
  32.0370618  31.4553941  48.1972093  32.6052038  32.2664030  48.9311271
  30.7975305  31.7009283  47.7174844  30.3930771  31.0154956  47.0956332
  30.0317332  32.9043984  48.0103246  30.6195954  33.7802898  47.7358588
  28.7024253  32.9366548  47.2255247  28.1221203  32.0754205  47.5566152
  28.1892112  33.8533372  47.5160494  28.8520787  32.8960450  45.6931629
  29.3939466  33.7925071  45.3917732  29.4422543  32.0142734  45.4436161
  27.5126653  32.8381675  44.9560260  26.8492232  33.6396720  45.2808861
  27.6538854  32.8990278  43.8769280  26.8770473  31.5316108  45.2809894
  27.3912878  30.8894110  45.8668523  25.6662703  31.1646547  44.8391440
  24.9664030  31.9283457  44.0092115  25.3470819  32.8101739  43.6968614
  24.0564021  31.6241112  43.6938712  25.1555746  30.0112813  45.2418073
  25.6801145  29.4234091  45.8737601  24.2438412  29.7246972  44.9151417
  29.7143166  33.0463805  49.4879219  29.7183925  34.1425572  50.0435064
  29.4721822  31.9162925  50.1761682  29.5468434  31.0313430  49.6951387
  29.0945843  31.9082206  51.5673018  28.5402573  32.8125625  51.8182727
  28.1822886  30.6885423  51.8073088  28.7264510  29.7746482  51.5690131
  27.8737281  30.6650252  52.8524584  27.3008562  30.7625196  51.1703602
  30.3025517  31.8280078  52.4931607  30.1654798  31.7251730  53.7100984
  31.5347359  31.8829139  51.9461064  31.6123214  31.9777177  50.9435636
  32.7511621  31.6961163  52.7158816  32.5172109  31.6096755  53.7769632
  33.4584313  30.3991717  52.2585392  33.5834450  30.4357576  51.1763505
  34.4374066  30.3516634  52.7354568  32.6386756  29.1459583  52.6399454
  32.7542722  29.0273262  53.7172869  31.6001422  29.3845811  52.4105775
  33.0293089  27.8424480  51.9385444  32.3471337  27.0370181  52.2106080
  33.0270694  27.9696766  50.8559977  34.4156761  27.4669709  52.3759011
  34.8721850  28.0503611  53.0624540  35.0736914  26.3962592  51.9064842
  34.5162768  25.5957688  51.0048784  33.5853535  25.7926137  50.6661544
  35.0259229  24.7939386  50.6621996  36.3042351  26.1054319  52.3229260
  36.7565073  26.6976715  53.0046901  36.7799063  25.2938836  51.9551965
  33.6591925  32.9085858  52.6441001  34.8659968  32.8194520  52.8686431
  33.0875038  34.0898395  52.3382608  32.1264676  34.0989863  52.0277369
  33.7970756  35.3653384  52.4354481  33.0327014  36.1379390  52.5186326
  34.3758696  35.3267458  53.3582739  34.7150042  35.7065902  51.2967347
  35.4214539  36.7072748  51.3524931  34.7418177  34.8921074  50.2296490
  34.0419583  34.1697191  50.1377185  35.7658513  34.9867080  49.2150279
  36.6176140  35.5182315  49.6393890  36.2061317  33.5508459  48.8638214
  35.3662274  33.0087408  48.4293298  37.0252747  33.5868517  48.1456232
  36.5384835  33.0407683  49.7679576  35.3517522  35.7003604  47.9422922
  36.1870746  35.9199372  47.0668475  34.0796890  36.1048807  47.7863251
  33.4310460  36.0107966  48.5547714  33.5796977  36.6194669  46.5208154
  34.4114935  36.7158606  45.8230166  32.5201181  35.7056758  45.8963455
  31.6295763  35.7155248  46.5247860  32.1541439  36.1898017  44.4797711
  33.0441525  36.1797858  43.8505768  31.4003813  35.5283744  44.0526219
  31.7586819  37.2041502  44.5327652  33.0531127  34.2611352  45.8048729
  33.2939827  33.8982257  46.8040628  32.2922379  33.6200737  45.3596658
  33.9503078  34.2428422  45.1861588  33.0129236  38.0162578  46.7133470
  32.1654371  38.2484540  47.5727232  33.4785245  38.9989297  45.9039387
  34.2843256  38.7939491  45.3305567  32.9546628  40.3696238  45.9031222
  32.7745345  40.6233229  46.9477704  33.8726127  41.4273709  45.2955062
  33.4777838  42.4183222  45.5196172  35.2678090  41.2958846  45.8768752
  35.6635062  40.3052827  45.6527520  35.9174065  42.0536891  45.4388632
  35.2262982  41.4340814  46.9572821  33.9697772  41.2384010  43.8863280
  34.5483836  41.9072716  43.5129286  31.5920568  40.4810978  45.2429409
  31.1422157  39.5650087  44.5505691  30.8906111  41.6237266  45.3972344
  31.2246968  42.3001703  46.0687326  29.6226993  41.8804283  44.7322668
  28.9433262  41.1283261  45.1333822  29.0892612  43.2773855  45.1090473
  29.7542009  44.0415220  44.7064922  28.0904910  43.4098342  44.6930958
  29.0455019  43.3696275  46.1942550  29.6440751  41.7186186  43.2056006
  30.6789965  41.8868402  42.5425679  28.4838660  41.3317641  42.6299720
  27.7809812  40.9860552  43.2675751  28.2082715  41.2731029  41.1993370
  28.9642898  40.6929385  40.6702390  26.8399174  40.6507177  40.9317311
  26.1159271  41.1539090  41.5726178  26.3973155  40.7767295  39.4582663
  27.1206255  40.2733429  38.8167638  25.4176992  40.3157645  39.3319191
  26.3406501  41.8301889  39.1841970  26.8853599  39.1642401  41.3450755
  27.1260160  39.0886456  42.4054868  25.9142427  38.7052140  41.1598025
  27.6479602  38.6476662  40.7622436  28.3428852  42.6455899  40.5548522
  27.9946743  43.6677834  41.1463887  28.8987326  42.7008043  39.3314049
  29.1277708  41.8290870  38.8756093  29.2124666  43.9355272  38.6469077
  28.9590060  44.7823995  39.2846100  30.7228295  44.0077940  38.3044339
  30.9024141  43.2436203  37.5482017  30.8919489  44.9936530  37.8713281
  31.6883580  43.7945407  39.4906745  31.5636336  42.7665829  39.8310383
  32.7019656  43.9315260  39.1139298  31.4436148  44.7585493  40.6682034
  31.2647502  45.7375381  40.2235827  30.5340034  44.4107931  41.1578688
  32.5759952  44.8657310  41.7060934  33.4041362  45.4251906  41.2710210
  32.2035089  45.3931506  42.5842629  33.0442791  43.5207487  42.1014058
  33.3898730  43.0320218  41.2878884  33.7857885  43.6088595  42.7814796
  32.2771583  43.0023267  42.5049691  28.4068930  44.0701152  37.3671568
  27.6665013  43.1691802  36.9675642  28.5397974  45.2328593  36.7119466
  29.0525942  45.9586518  37.1919092  27.9885416  45.5292873  35.4246904
  27.5112712  44.6490288  34.9940431  26.9217810  46.6349942  35.5973083
  26.2235975  46.3025483  36.3655002  27.4272639  47.5402265  35.9336734
  26.1624585  46.9263887  34.3159623  25.2616473  47.7976082  34.3745872
  26.4694954  46.2845414  33.2783356  29.1590468  45.9553859  34.5539622
  29.8822343  46.9134319  34.8831393  29.4099872  45.2504947  33.4403378
  28.9448369  44.3617234  33.3227783  30.3969726  45.6424589  32.4596035
  31.2543773  46.0790586  32.9717919  30.8865902  44.4336404  31.6130213
  31.7228779  44.7999301  31.0175769  31.2461163  43.6909891  32.3252783
  29.8358592  43.7876955  30.6821805  28.9785489  43.4563991  31.2681521
  29.5103798  44.5241531  29.9474728  30.4164966  42.5829966  29.9420145
  30.4033271  41.4474388  30.4266186  30.9436905  42.8091207  28.7176271
  31.3387266  42.0425676  28.1918474  30.9400756  43.7435621  28.3343419
  29.9096241  46.7740026  31.5575312  30.7186538  47.4530593  30.9149296
  28.5893839  47.0503693  31.5140659  27.9890634  46.5627801  32.1636591
  27.9814984  48.0034329  30.5926876  26.9177768  48.0316550  30.8289059
  28.4269708  48.9745499  30.8085245  28.1505508  47.7010893  29.1234134
  28.0734917  46.5596884  28.6762826  28.3935486  48.7372424  28.2999471
  28.5882737  49.6473705  28.6921820  28.3940557  48.5961201  26.8558552
  27.6827129  47.8334312  26.5390015  27.9740604  49.9523439  26.2368313
  28.7050686  50.6891473  26.5697683  28.0412549  49.8378098  25.1549501
  26.5485089  50.4299747  26.6182757  26.4623829  50.4579567  27.7045078
  26.4252249  51.4364947  26.2184999  25.4358575  49.5453270  26.0635557
  24.4575201  49.2221999  26.7434268  25.5568462  49.1461803  24.7821433
  24.8456113  48.5594086  24.3698992  26.3582113  49.4356061  24.2397891
  29.7677520  48.2220277  26.3058586  29.9770505  48.1370035  25.0927065
  30.7518331  47.9712702  27.1799931  30.5191671  48.0599017  28.1588242
  32.1144118  47.6200062  26.8258772  32.3869076  48.0420651  25.8585553
  33.0614340  48.2059070  27.9072111  32.9116821  49.2833202  27.9768845
  32.8420594  47.7460499  28.8708014  34.8615589  48.0078358  27.7327624
  32.2970791  46.1103903  26.7217170  31.7709870  45.3365494  27.5231622
  33.1051751  45.6300318  25.7467818  33.4691643  46.2812721  25.0659755
  33.4779756  44.2227246  25.6272821  32.6116322  43.6089762  25.8739827
  33.7802635  44.0268546  24.5985177  34.6145808  43.8608448  26.5501221
  35.6805063  43.4277131  26.1195761  34.4052080  44.0362284  27.8626531
  33.4633901  44.2804045  28.1336817  35.4192044  43.9439828  28.9006169
  36.4035345  43.8505708  28.4418493  35.4096318  45.2027095  29.7970389
  36.0258748  45.0164380  30.6766108  35.8223740  46.0410010  29.2357803
  34.0779277  45.5142850  30.2066849  34.0888937  46.2973298  30.7619510
  35.2780468  42.7343106  29.8026178  35.9259573  42.6520846  30.8470358
  34.4799616  41.7222041  29.4081582  34.0003556  41.8669485  28.5311597
  34.1832176  40.5080917  30.1689283  33.6675084  40.7719414  31.0922520
  33.2751770  39.5485386  29.3495205  33.0964730  38.6391252  29.9232204
  32.3241598  40.0384015  29.1404735  33.9301474  39.0085574  27.7379821
  32.8875060  38.2502736  27.4111750  35.4207703  39.7591661  30.6595714
  35.4809780  39.2579273  31.7831014  36.4736444  39.7558865  29.8246520
  36.2819123  40.1130206  28.8995610  37.7991478  39.2419551  30.1011609
  37.7583079  38.1767315  30.3286033  38.6921653  39.4482702  28.8388695
  39.6906138  39.0548976  29.0298087  38.2418512  38.9068029  28.0069257
  38.8726349  40.8905205  28.3744494  38.0583429  41.6536160  27.5880100
  37.1632040  41.1563356  27.2144618  38.5624015  42.9329094  27.4311680
  38.1588169  43.6898346  26.8979859  39.7539157  42.9885399  28.1276628
  40.6588394  44.0473606  28.2653865  40.4236544  45.0015672  27.7939245
  41.8252325  43.8057782  29.0121549  42.5633155  44.5965333  29.1464671
  42.0578560  42.5581346  29.5910276  42.9684457  42.3746333  30.1613373
  41.1383072  41.5059879  29.4615234  41.3491642  40.5421951  29.9249276
  39.9870384  41.7538455  28.7138203  38.4488159  39.8809811  31.3269774
  39.0012014  39.1848867  32.1853671  38.3542443  41.2155053  31.4725021
  37.9780949  41.7360497  30.6929865  38.8569273  41.9518003  32.6087915
  39.8842463  41.6276186  32.7749874  38.8610186  43.4649067  32.2973653
  37.8382633  43.8062463  32.1374936  39.2978245  44.0077287  33.1356045
  39.4498576  43.6498816  31.3989489  38.0886850  41.6224456  33.8839837
  38.6986601  41.3275434  34.9098614  36.7360189  41.5723825  33.8310758
  36.2889617  41.8560635  32.9709803  35.8862889  41.2092798  34.9690900
  36.1419350  41.8460978  35.8159708  34.3689064  41.3801831  34.6576800
  34.2016667  41.0366604  33.6368360  33.7006048  40.8471250  35.3339359
  33.9572850  42.8281263  34.6978597  34.0608114  43.6469285  33.5648640
  34.3389477  43.2011811  32.6098513  33.8118484  45.0214671  33.6494284
  33.9291763  45.6472157  32.7646835  33.4147314  45.5919893  34.8603737
  33.2048834  46.6596445  34.9249965  33.2873478  44.7876589  35.9901449
  32.9867562  45.2286325  36.9405591  33.5450023  43.4135971  35.9060591
  33.4263124  42.7819657  36.7864309  36.1395430  39.7887664  35.4583557
  36.1878493  39.5189701  36.6635538  36.3403281  38.8390739  34.5257998
  36.1491361  39.0793369  33.5636051  36.7701226  37.4767046  34.8267181
  36.0759082  37.0072271  35.5236804  36.8016820  36.6423079  33.5219437
  35.7929733  36.6377525  33.1089240  37.4760775  37.1424702  32.8268693
  37.2399765  35.2943075  33.7252183  37.2393183  34.8276688  32.8862620
  38.1346772  37.3845119  35.4991645  38.2812573  36.7581889  36.5535950
  39.1675010  38.0492135  34.9353800  39.0165911  38.5220152  34.0557300
  40.5025684  38.0526175  35.4964722  40.7957385  37.0120565  35.6356959
  41.4824916  38.7125193  34.5024128  41.2073089  39.7575141  34.3597229
  42.4963171  38.6551507  34.8986036  41.4366267  38.1914264  33.5461400
  40.5918106  38.7420185  36.8538605  41.1650486  38.2003349  37.7981947
  39.9863326  39.9368373  37.0102497  39.6341126  40.4037251  36.1868081
  39.9622815  40.6585935  38.2783532  40.9430813  40.6495027  38.7537986
  39.4900137  42.0961558  38.1180728  38.5573838  42.0800919  37.5541190
  39.2609968  42.8038111  39.4701772  40.1933638  42.8206772  40.0345422
  38.9251464  43.8256620  39.2937517  38.5024891  42.2656452  40.0386336
  40.4935697  42.8965889  37.2526970  40.5087028  42.4065563  36.2791777
  40.0710136  43.8960142  37.1492804  41.9274243  43.0007106  37.7957326
  42.3508357  42.0016304  37.8989871  42.5367402  43.5833700  37.1048336
  41.9131460  43.4910866  38.7690914  39.1926418  39.9197724  39.3474963
  39.6916627  39.7523900  40.4644007  38.0068607  39.3645017  39.0279694
  37.6368204  39.4808905  38.0954335  37.2286414  38.5929403  39.9888376
  37.0064523  39.2474501  40.8316591  36.2987176  38.3027141  39.4998490
  37.9215058  37.3559808  40.4980960  37.7782876  36.9903070  41.6622714
  38.7336803  36.6932198  39.6558963  38.6565628  36.8936228  38.6689865
  39.6371327  35.6383522  40.0749538  39.1057228  34.8828914  40.6537297
  40.2340276  34.9653093  38.8107232  39.4365976  34.4576826  38.2680264
  40.6481010  35.7588758  38.1887141  41.3324884  33.9608529  39.1107452
  42.5017201  34.2432779  38.8200112  41.0232149  32.7975111  39.7058006
  41.7515779  32.1272726  39.9067171  40.0636357  32.5980244  39.9497546
  40.7245454  36.1452618  41.0339483  40.9420651  35.5409303  42.0861563
  41.3943346  37.2827351  40.7290880  41.2240944  37.7032310  39.8267018
  42.4283062  37.8694026  41.5845609  43.1644987  37.0958496  41.8030456
  43.1473435  39.0644836  40.9505791  42.4051060  39.8203732  40.6940375
  44.1881201  39.6724864  41.9203082  44.9310040  38.9172679  42.1769588
  44.6811862  40.5183437  41.4412346  43.6865259  40.0108446  42.8269606
  43.8829056  38.6113308  39.6736311  43.1625390  38.2053834  38.9634334
  44.3930748  39.4640307  39.2256022  44.6138761  37.8437446  39.9277853
  41.8964763  38.2637554  42.9603053  42.5333496  37.9789270  43.9765908
  40.6905485  38.8750763  43.0353785  40.2276146  39.0807904  42.1616089
  40.0244316  39.2523274  44.2759766  40.6191153  39.9979503  44.8037046
  38.6188523  39.8576450  43.9752516  38.1220069  39.1581834  43.3029442
  38.0878681  39.8856339  44.9267622  38.6176919  41.2755730  43.3400130
  39.1782193  41.9575021  43.9794523  39.1351660  41.1637220  42.3872228
  37.2257842  41.8374904  43.0975160  36.2963990  41.0218056  42.8525517
  37.0463357  43.0852954  43.1992948  39.8261838  38.0606701  45.2064236
  40.1628194  38.0930787  46.3904440  39.3213220  36.9471315  44.6443646
  39.0180442  37.0009398  43.6824776  39.1200894  35.7028859  45.3596313
  38.5713606  35.8893698  46.2827887  38.3061484  34.7125022  44.4918011
  38.8304558  34.4967347  43.5608632  38.1298011  33.7827954  45.0327695
  36.6600475  35.3390943  44.0121524  36.2985972  34.2634860  43.3183809
  40.4056838  35.0215830  45.8256134  40.5130639  34.6002866  46.9781431
  41.4346750  34.9212232  44.9528121  41.2613613  35.1973744  43.9968820
  42.7369299  34.3532783  45.2832752  42.5984857  33.3740746  45.7416335
  43.6202540  34.1877795  44.0158436  43.6917034  35.1738981  43.5569707
  44.6055677  33.8770016  44.3632252  43.0956026  33.1686018  42.9711280
  42.1016131  33.4635820  42.6348656  43.7749365  33.1457285  42.1190222
  43.0128810  31.7691731  43.5650921  43.9625285  31.3036388  44.2129164
  41.8806966  31.0639339  43.3702401  41.7972518  30.1328232  43.7525637
  41.1209894  31.4698449  42.8428099  43.4834613  35.1538658  46.3441632
  44.0949654  34.5950049  47.2542243  43.4218517  36.4998815  46.2849772
  43.0070824  36.9154718  45.4631801  43.9942442  37.3816869  47.2890649
  45.0522901  37.1628529  47.4331129  43.8528103  38.8483771  46.8083403
  44.3427553  38.9676680  45.8419952  42.7888596  39.0612405  46.7044261
  44.4246634  39.9229605  47.7220933  43.7449063  40.8107452  48.5095211
  42.6564618  40.7591712  48.4825311  44.6284491  41.6101606  49.1937004
  44.3801077  42.3458563  49.8395934  45.9075662  41.2357324  48.8656151
  47.1388885  41.7056763  49.2914168  47.1431544  42.5232338  50.0123053
  48.2971122  41.1093781  48.7764214  49.2799329  41.4589255  49.0926176
  48.2146387  40.0618603  47.8534990  49.1115887  39.5940760  47.4475953
  46.9709561  39.5826345  47.4232174  46.9453363  38.7598313  46.7087671
  45.8223929  40.1756097  47.9374178  43.3871227  37.2000422  48.6795431
  44.1143227  37.1138974  49.6711329  42.0493601  37.0745535  48.7946943
  41.4672752  37.2646011  47.9914768  41.3989191  36.7523664  50.0588189
  41.6925291  37.4698573  50.8250428  39.8536745  36.8115739  49.8882909
  39.4449069  37.7800251  49.6000022  39.6102313  36.0730860  49.1244381
  39.1258369  36.3916107  51.1426371  38.5926251  35.0984471  51.2535150
  38.6477441  34.4255198  50.3978102  37.9956211  34.6691254  52.4437365
  37.5846693  33.6621179  52.5155359  37.9262849  35.5321133  53.5410393
  37.4485852  35.2064034  54.4650609  38.4717325  36.8161159  53.4510984
  38.4241881  37.4926801  54.3043864  39.0797814  37.2318713  52.2618596
  39.5272535  38.2236218  52.1962887  41.8258374  35.3923203  50.6144278
  42.1602339  35.2501417  51.7915698  41.8771243  34.3557549  49.7629421
  41.6013822  34.5029077  48.8025195  42.1847865  33.0029827  50.1912088
  41.6807462  32.7863559  51.1330768  41.7055437  31.9895074  49.1310483
  42.1352977  32.3446746  48.1944230  42.1072604  31.0032854  49.3636209
  40.1704661  31.8997014  48.9912063  39.7671588  32.8992483  48.8288797
  39.7991005  31.0002117  47.8057310  40.2016970  30.0002995  47.9675658
  38.7141359  30.9445333  47.7171165  40.2171709  31.4156407  46.8888143
  39.4882402  31.3859056  50.2712628  39.7095380  32.0612833  51.0976959
  38.4101148  31.3427165  50.1167257  39.8611359  30.3892598  50.5073664
  43.6474728  32.7851742  50.5522698  43.9926814  31.7945005  51.1999469
  44.5314039  33.7428405  50.2275683  44.2193107  34.4892408  49.6229331
  45.9021808  33.7554630  50.6784023  46.2877747  32.7400179  50.7694390
  46.7416491  34.5081942  49.6310877  46.3732993  35.5295879  49.5353103
  47.7849704  34.5268049  49.9461029  46.6621210  34.0021110  48.6689784
  46.0503863  34.4373951  52.0463993  47.1565939  34.5853178  52.5620326
  44.9317373  34.8274805  52.7042342  44.0410620  34.7410496  52.2359110
  44.9511357  35.3683730  54.0613403  44.0728079  34.9811862  54.5777953
  45.8521439  34.9939863  54.5472604  44.9416895  36.8645173  54.1380417
  45.2524450  37.4351138  55.1806407  44.5573832  37.5448914  53.0469263
  44.3259179  37.0340746  52.2069327  44.5060860  38.9942911  53.0066985
  45.0388413  39.4010524  53.8662427  45.1582348  39.5371164  51.7215773
  44.5998580  39.1253998  50.8808610  45.1685551  40.6248713  51.6524200
  46.5665796  39.0869398  51.5584084  47.5338247  39.5702926  52.4122561
  47.4547280  40.2614780  53.1444489  48.6327529  38.9244246  52.0707049
  49.5359636  39.1570331  52.6347994  48.4217918  38.0638091  51.0467354
  47.0928755  38.1678947  50.7098132  46.6878348  37.5649419  49.8971072
  43.0556356  39.4561198  53.1038573  42.1590063  38.6548967  52.8430212
  42.7090527  40.6831138  53.4993910  43.6395315  41.7098542  53.9571893
  44.1270534  42.1631144  53.0940683  44.3916073  41.2520530  54.5997616
  42.7503107  42.6943195  54.7121698  43.1836500  43.6944748  54.7097972
  42.5929327  42.3695384  55.7406885  41.4397651  42.6501176  53.9177212
  41.4179379  43.3309130  53.0667569  40.6069238  42.8752234  54.5839062
  41.3403893  41.1931010  53.4255830  40.7592719  40.6339533  54.1589005
  40.6789524  41.0751508  52.0573217  41.3624070  41.1785354  51.0384839
  39.3482686  40.8561152  51.9992104  38.8541253  40.5951826  52.8405403
  38.6072715  40.9010694  50.7517809  39.1475824  40.3434899  49.9867525
  37.2013116  40.2771294  50.9179462  37.4072787  39.2864863  51.3232893
  36.6372496  40.8577334  51.6479003  36.3758892  40.1405284  49.6211193
  36.3785320  41.1037936  49.1110076  36.9516642  39.0645394  48.6863997
  36.9489158  38.1008392  49.1956867  36.3412534  39.0006091  47.7856154
  37.9736781  39.3281183  48.4141603  34.9049239  39.8387086  49.9490248
  34.4916564  40.6504067  50.5477364  34.3374427  39.7455542  49.0230720
  34.8410162  38.9058175  50.5091399  38.5078271  42.3262735  50.2226334
  37.8909069  43.2030452  50.8284814  39.1444824  42.5827033  49.0696167
  39.4349532  41.8024301  48.4978651  39.4189095  43.9297801  48.5900305
  38.9516319  44.6111853  49.3009721  40.9109716  44.2323048  48.5343849
  41.3661525  43.5157098  47.8507166  41.2245506  45.6583811  48.0632367
  40.7700557  46.3755860  48.7467212  42.3042500  45.8069563  48.0466879
  40.8224375  45.8071735  47.0611058  41.4766908  44.1496913  49.8307065
  42.4159946  44.3420739  49.7827720  38.8757099  44.0667828  47.1941113
  39.1058232  43.2032109  46.3535504  38.1399610  45.1605875  46.9042375
  37.9108743  45.7958608  47.6552678  37.6232425  45.4494395  45.5739956
  37.2259391  44.5350239  45.1334354  36.4880478  46.5087069  45.6273946
  36.8930357  47.4293420  46.0475317  36.0947041  46.7071631  44.6304012
  35.3445789  46.0290332  46.5160042  34.7499926  44.9653629  46.3218428
  34.9860598  46.8543299  47.5285329  34.2351286  46.5896051  48.1499209
  35.4712895  47.7306914  47.6575423  38.7387525  45.9452511  44.6505166
  39.4553591  46.8937180  44.9875634  38.9289748  45.3188219  43.4748841
  38.2828951  44.5921564  43.2016852  40.0670957  45.5893718  42.6117620
  40.6759007  46.3839481  43.0431598  40.9435606  44.3250914  42.4549871
  40.2486549  43.5853555  42.0574999  41.7335323  44.5088856  41.7267944
  41.5648249  43.7952490  43.7648377  40.7754757  43.6549625  44.5033149
  42.2729800  42.4566114  43.5126437  43.0628217  42.5962046  42.7745634
  42.7069933  42.0934107  44.4442115  41.5526124  41.7284665  43.1398489
  42.5271167  44.7936589  44.4295039  41.9905532  45.7116934  44.6691113
  42.9280195  44.3582928  45.3448370  43.3458560  45.0197082  43.7463739
  39.6313493  46.1052943  41.2521683  38.4653372  46.0372682  40.8947089
  40.5749948  46.6881774  40.4838479  41.5378774  46.5891385  40.7722016
  40.2877827  47.4737056  39.2839926  39.3042723  47.9386441  39.3521005
  41.3672004  48.6019016  39.1590474  41.1971533  49.2636999  40.0082861
  42.3279959  48.1006899  39.2763452  41.3740201  49.3716616  37.9464799
  42.0744091  50.0269342  37.9873824  40.2699900  46.6887424  37.9779155
  41.3121663  46.2672114  37.4656420  39.0850417  46.5428134  37.3399021
  38.2389091  46.6044074  37.8879579  38.9695246  46.2123071  35.9266016
  39.5916189  45.3413170  35.7205094  37.5162979  45.8935012  35.5021256
  36.8988183  46.7339951  35.8189664  37.5081008  45.8270828  34.4141819
  36.9510868  44.5822477  36.1035122  36.2104716  44.1703279  35.4180110
  37.8133025  43.9169325  36.1486677  36.3361130  44.7151986  37.4986768
  36.3087681  45.8496984  38.0267284  35.8363302  43.6757827  38.0116922
  35.4850189  43.8843105  38.8804245  39.5231610  47.2836202  35.0013637
  40.1016238  46.9759641  33.9543974  39.3771832  48.5819832  35.3475716
  38.8897637  48.7994131  36.2050363  39.7850090  49.6829685  34.4874782
  39.3384468  49.5340585  33.5043673  39.3560118  51.0671156  35.0196164
  38.3432578  50.9737167  35.4116689  40.0346780  51.3376966  35.8285034
  39.3878984  52.1664424  33.9302983  39.0697640  53.1212510  34.3489054
  40.3907331  52.2682511  33.5154977  38.4320439  51.7848738  32.8057861
  37.2815704  51.4206619  33.0713600  38.8663077  51.8477603  31.5344789
  38.2445369  51.5980527  30.7787351  39.8122299  52.1444107  31.3412662
  41.2656161  49.7138074  34.1792289  41.6804068  50.0408449  33.0652590
  42.0996013  49.2938850  35.1478753  41.7041810  49.1019385  36.0572150
  43.5227337  49.1056783  34.9649803  44.0093207  50.0642930  34.7850080
  44.1329376  48.4725440  36.2401110  43.9575707  49.1839851  37.0470789
  43.5648543  47.5617770  36.4295440  45.6360292  48.1352376  36.1703035
  45.8199788  47.6358720  35.2190426  46.1883616  49.0744722  36.1997872
  46.2024747  47.0671384  37.5242734  45.4255085  45.5314142  36.9336392
  45.8173981  45.2811924  35.9477840  45.6467540  44.7211758  37.6283800
  44.3462826  45.6706216  36.8704427  43.8305882  48.1962202  33.7904857
  44.6250546  48.5462462  32.9211050  43.1671207  47.0281307  33.6850769
  42.5688887  46.7091051  34.4337026  43.3350074  46.1729845  32.5286445
  44.3972276  46.0161924  32.3410180  42.6675173  44.8024143  32.7565334
  41.6451792  45.0246391  33.0623766  42.6544353  44.2765046  31.8018880
  43.3400133  43.9166469  33.8207182  43.3767500  44.4443480  34.7737569
  42.5179171  42.6316257  33.9796121  42.4811162  42.1031073  33.0270299
  42.9823756  41.9931306  34.7310793  41.5051802  42.8841022  34.2938096
  44.7867221  43.5718572  33.4366991  45.3656153  44.4901134  33.3377664
  45.2293708  42.9455745  34.2112527  44.7932718  43.0348623  32.4881778
  42.7802930  46.7845752  31.2492955  43.4746729  46.8909323  30.2463889
  41.5314581  47.2902154  31.2686230  41.0071187  47.2679474  32.1315666
  40.8628219  47.7823787  30.0626289  40.8624454  47.0033707  29.3002342
  39.4154586  48.1793620  30.3563850  39.4233437  48.9384897  31.1385373
  38.7010301  48.7359291  29.1071332  38.6923395  47.9771505  28.3246497
  37.6762114  49.0045158  29.3634698  39.2291344  49.6198533  28.7495225
  38.6286754  46.9536221  30.8512859  39.0884711  46.5695017  31.7618580
  37.5983097  47.2422335  31.0590106  38.6409633  46.1793688  30.0841603
  41.5989909  48.9405099  29.3925331  41.6962991  49.0191403  28.1571018
  42.1345674  49.8711703  30.2016573  41.9418374  49.7834939  31.1892135
  42.9043572  51.0152159  29.7499103  42.5431519  51.3077880  28.7639938
  42.7942134  52.2315000  30.6972347  43.1830362  51.9349782  31.6713963
  43.4107283  53.0323284  30.2889660  41.4519414  52.6917135  30.8414658
  41.4341071  53.4449217  31.4364104  44.3905667  50.7618844  29.5352816
  44.9764688  51.3106182  28.5990492  45.0694043  49.9669273  30.3938180
  44.5617009  49.4072539  31.0639689  46.5277349  49.9224696  30.4188901
  46.9216632  50.6982766  29.7623514  47.0813787  50.1531383  31.8438717
  46.8295179  49.3005187  32.4745103  48.1647997  50.2642634  31.7997116
  46.5082738  51.7196671  32.5631460  47.1416011  48.6430048  29.9145014
  48.3184013  48.6522054  29.5370484  46.3858241  47.5442929  29.8200327
  45.4763292  47.5391287  30.2592272  46.8713137  46.3246795  29.2514081
  47.9411442  46.2122702  29.4272659  46.1357029  45.1517122  29.9261490
  46.2564381  45.2239778  31.0070282  45.0806480  45.2520595  29.6714147
  46.6422024  43.8107650  29.4520638  47.5300255  43.7952711  28.5594299
  46.1481512  42.8054441  30.0192519  46.7349919  46.4569544  27.7465065
  45.6288403  46.4951420  27.1781576  47.8710431  46.6325081  27.0615878
  48.7244217  46.7150069  27.5954775  47.9418019  46.7946245  25.6275458
  46.9616719  47.0760977  25.2425560  48.9600307  47.8994225  25.2455609
  49.9472437  47.5308404  25.5242310  48.9089500  48.0171799  24.1631450
  48.7098862  49.2652599  25.9244180  48.8334185  49.1206326  26.9976950
  49.4739538  49.9522274  25.5605795  47.3156497  49.8536775  25.6434851
  47.1918649  49.8856335  24.5610087  46.5845899  49.1682083  26.0721843
  47.1022685  51.2537050  26.2223947  47.3075304  51.2432967  27.2928431
  47.7719925  51.9597427  25.7313961  45.7006566  51.6640274  25.9937470
  45.0799224  51.0101665  26.4489992  45.5540756  52.5881021  26.3741417
  45.5103743  51.6741500  25.0018855  48.2769421  45.4870548  24.9392227
  48.5597986  45.4884538  23.7291127  48.2422808  44.3374982  25.6400330
  48.1937006  44.3819243  26.6478850  48.3781558  43.0285857  25.0114059
  48.8142111  43.1972242  24.0267658  49.2593485  42.0221246  25.7739605
  49.5152137  41.1963143  25.1101303  50.5456346  42.7056478  26.2591830
  50.2905723  43.5313325  26.9234779  51.1605507  41.9839910  26.7969457
  51.1002837  43.0875828  25.4021004  48.6359608  41.4831769  26.9257110
  49.2338292  40.8661803  27.3540437  46.9901929  42.4684034  24.7788469
  46.8240259  41.5015189  24.0251335  45.9682639  43.1409673  25.3419392
  46.2338728  43.8245913  26.0363523  44.5659455  42.9132947  25.1098484
  44.4456034  42.1285953  24.3629456  43.8423101  42.4748434  26.4107728
  44.3166457  43.0407740  27.2125381  42.7760118  42.6999111  26.3894984
  44.0408457  40.9899037  26.6541256  43.7326127  40.2030342  25.7185062
  44.4174153  40.5845174  27.7747510  43.9500199  44.1740687  24.5001347
  44.6140817  45.1973671  24.3085717  42.6571296  44.1294723  24.1042311
  42.0825946  43.3593242  24.4154881  42.0883262  45.0752575  23.1447923
  42.8417756  45.8268680  22.9092189  41.6360276  44.3986083  21.8280540
  41.0402756  43.5182419  22.0691635  41.0290735  45.1026471  21.2588122
  42.7682507  44.0083078  21.0492823  42.4699717  43.5911352  20.2377428
  40.9537127  45.9063300  23.7200589  40.0051060  46.2962018  23.0325973
  41.0214191  46.2481423  25.0208591  41.7643841  45.8505272  25.5776396
  40.0797246  47.1620770  25.6707588  40.4008572  47.2495187  26.7087025
  40.1919513  48.1257064  25.1738454  38.6212848  46.7582883  25.6387568
  38.2300340  45.7079287  26.1515702  37.7605485  47.5908446  25.0164579
  38.1100150  48.4669270  24.6552763  36.3415711  47.3091205  24.8858457
  36.0208719  46.6982850  25.7297244  35.4918929  48.6063629  24.8618031
  35.8628504  49.2698606  24.0806114  34.4504446  48.3554983  24.6604268
  35.4906835  49.4552419  26.4660138  36.0159109  46.5050093  23.6445139
  34.8469266  46.2270298  23.3914132  37.0415458  46.0574907  22.8901969
  37.9776496  46.3560308  23.1240403  36.8657537  45.1619070  21.7554828
  35.8244340  45.2081878  21.4367188  37.7692301  45.5235370  20.5496884
  38.8117165  45.4760945  20.8644431  37.5977498  44.8005184  19.7522308
  37.4758834  46.8367089  20.0722294  38.0453057  47.0407631  19.3267631
  37.1927904  43.7252749  22.1118526  37.0478744  42.8358763  21.2711087
  37.6203392  43.4347033  23.3581909  37.7867124  44.1918217  24.0056405
  37.8549059  42.0671966  23.8164233  37.1542318  41.8735786  24.6286222
  37.6337234  41.4035621  22.9805005  39.2543974  41.7949592  24.3012175
  40.1336570  42.6492328  24.2563054  39.4926869  40.5681292  24.8066009
  38.7642638  39.8684904  24.8044153  40.7840930  40.2142725  25.3631714
  41.5393346  40.2481624  24.5779575  41.0465011  40.9217674  26.1497413
  40.7449641  38.8303649  25.9439913  39.7062918  38.1709227  25.9317514
  41.8843958  38.3522918  26.4673940  42.6826680  38.9709507  26.4784421
  42.0400088  37.0231917  27.0132178  41.0836048  36.5017512  26.9746136
  43.0833195  36.2040289  26.2120486  44.0021655  36.7756640  26.3426420
  43.2014045  35.2191652  26.6639331  42.7855898  36.0462180  24.7054967
  42.5830649  37.0278458  24.2771376  43.9884459  35.4133468  23.9888894
  44.1913035  34.4314280  24.4164208  43.7651762  35.3077277  22.9272416
  44.8633695  36.0512923  24.1139279  41.5057620  35.2372527  24.4369134
  40.6543142  35.7406158  24.8949109  41.3447126  35.1573603  23.3618406
  41.6097614  34.2395306  24.8633331  42.5094736  37.0777609  28.4582942
  43.4521690  37.7759811  28.8125879  41.9028606  36.2866427  29.3685873
  41.1095072  35.7274703  29.0892740  42.2954611  36.2769654  30.7733489
  42.2259749  37.2902820  31.1688996  41.3926189  35.3531981  31.6208528
  41.4172299  34.3677427  31.1556955  41.8365835  35.2964613  32.6147222
  39.9310827  35.8295425  31.7377193  39.5270837  35.3272695  32.6167003
  39.9850123  36.9019137  31.9253728  38.8323394  35.5245620  30.3152658
  38.5373173  33.7685223  30.6527809  38.0750043  33.6592297  31.6338114
  37.8740600  33.3580900  29.8913770  39.4852033  33.2306133  30.6364337
  43.7505636  35.8964476  31.0330681  44.4082840  36.4713349  31.8965555
  44.2835593  34.9255831  30.2648711  43.6506189  34.3740677  29.7033406
  45.6872779  34.5312431  30.3139635  45.9757309  34.3680560  31.3523585
  45.9505662  33.2266066  29.5151202  45.6475278  33.3254957  28.4727729
  47.0116686  32.9818881  29.5628133  45.1606816  32.0895112  30.1451895
  44.7819175  32.1748997  31.3264785  44.8633461  31.0196940  29.3938629
  44.3396138  30.2547403  29.7946747  45.1644346  30.9835761  28.4304616
  46.6463300  35.6434284  29.9002524  47.6729124  35.8327576  30.5544725
  46.3237106  36.4539198  28.8588685  45.5023224  36.2310025  28.3150591
  47.1021179  37.6338066  28.4865455  48.1211964  37.3175483  28.2639270
  46.5333293  38.3781343  27.2511485  45.4545952  38.4557193  27.3868414
  46.9687593  39.3770958  27.2271321  46.8075099  37.6970853  25.9215462
  47.3044116  36.5757390  25.8292349  46.4719314  38.4243643  24.8264895
  46.6230315  38.0416324  23.9041096  46.0725232  39.3452366  24.9385973
  47.1402805  38.6449060  29.6194565  48.2175408  39.1128044  29.9993267
  45.9748451  38.9189074  30.2355000  45.1371498  38.5047589  29.8522939
  45.8415478  39.8245962  31.3569609  46.1851252  40.7975113  31.0055493
  44.3554006  39.9404092  31.7534402  43.9993481  38.9761224  32.1160386
  44.2458149  40.6868238  32.5401781  43.7693520  40.2402365  30.8846769
  46.6677608  39.4525261  32.5820653  47.3586558  40.2893807  33.1713017
  46.6674986  38.1626300  32.9818515  46.0335919  37.5240782  32.5230343
  47.4958297  37.6532312  34.0671084  47.2826265  38.2218984  34.9722389
  47.2299402  36.1492596  34.3515482  47.3543813  35.6467847  33.3923127
  47.9167170  35.7170626  35.0793143  45.8357886  35.8274655  34.8296724
  45.1654801  36.6155415  35.7788683  45.6418604  37.5233433  36.1490813
  43.8994467  36.2471758  36.2500064  43.3919631  36.8754301  36.9820293
  43.2870780  35.0815650  35.7866426  42.2950641  34.8019040  36.1413228
  43.9517251  34.2729362  34.8646227  43.4859208  33.3538432  34.5091025
  45.2175523  34.6424984  34.3960392  45.7413541  34.0069000  33.6820740
  48.9800025  37.8331170  33.7879847  49.7409537  38.2838093  34.6514305
  49.3951852  37.5319959  32.5447025  48.7269422  37.0617267  31.9510717
  50.7424580  37.7127239  32.0513554  51.4623589  37.2586873  32.7323052
  50.8714340  37.0273255  30.6635236  49.9987353  36.3818309  30.5643618
  50.8161027  37.8280791  29.9260739  52.1598231  36.1948061  30.4270430
  51.9919565  35.5879660  29.5372864  52.9874727  36.8809666  30.2473796
  52.4976095  35.2908026  31.5995698  51.6076847  34.5008711  31.9830175
  53.6307661  35.3926161  32.1272318  51.1745884  39.1732485  32.0339967
  52.2507230  39.5129134  32.5286401  50.3190016  40.1091868  31.5578541
  49.4725766  39.7850489  31.1122100  50.5813629  41.5460293  31.5840689
  51.5158042  41.7423438  31.0583511  49.4477133  42.3700039  30.9077358
  49.4415441  42.0539952  29.8645677  48.4653788  42.1938435  31.3460124
  49.6614248  43.8923574  30.9048463  50.3780955  44.6470508  30.0212843
  50.7926916  44.1233583  29.1599157  50.4208555  45.9634167  30.4322375
  50.9053401  46.7149597  29.9626021  49.7039708  46.0819801  31.5988673
  49.4446158  47.1768688  32.4140621  49.8517175  48.1410704  32.1096247
  48.6794643  46.9790886  33.5730751  48.4484272  47.8166939  34.2312082
  48.2014851  45.7057941  33.9022363  47.6253579  45.5402623  34.8126077
  48.4487020  44.6072946  33.0728771  48.0538013  43.6346129  33.3662106
  49.2067277  44.8009755  31.9261693  50.8055350  42.0895691  32.9932688
  51.7341807  42.8610080  33.2330608  49.9824520  41.6588482  33.9779901
  49.2151030  41.0487580  33.7349579  50.1141863  42.0855423  35.3686874
  50.0469680  43.1712019  35.4388603  49.0379060  41.4491235  36.2547150
  49.0193218  40.3775707  36.0558941  49.3160121  41.6893890  37.7555110
  49.3342863  42.7607850  37.9552042  48.5307722  41.2228025  38.3503186
  50.2794436  41.2543148  38.0212349  47.6363260  41.9933106  35.9046537
  47.5743847  43.0101492  36.2923434  47.5558389  42.0138642  34.8178240
  46.4903885  41.1534284  36.4865489  46.5699451  41.1327941  37.5734457
  45.5351007  41.5938544  36.2009806  46.5514009  40.1365079  36.0989278
  51.4910375  41.7635418  35.9297644  52.1546226  42.6223687  36.5166819
  51.9844543  40.5317982  35.7182042  51.3910110  39.8393234  35.2841500
  53.3093755  40.1244084  36.1624139  53.4917107  40.4766218  37.1776966
  53.4252098  38.6083762  36.1458961  53.2124823  38.2623581  35.1344033
  54.8296169  38.1284415  36.5686529  55.0428872  38.4737079  37.5802891
  54.8652935  37.0393536  36.5419101  55.5740609  38.5327897  35.8827904
  52.3781461  38.0505530  37.1250855  51.3820988  38.3584993  36.8070275
  52.4348016  36.9620939  37.1371981  52.5745506  38.4352433  38.1258549
  54.4280927  40.7461473  35.3477560  55.3352556  41.3687731  35.9044772
  54.3799026  40.6344520  34.0065166  53.5995922  40.1403466  33.5977688
  55.4675301  41.0443863  33.1358834  56.4189893  40.7368375  33.5697478
  55.3292821  40.3963460  31.7371585  54.3871768  40.7389217  31.3091645
  56.1573208  40.7559563  31.1263130  55.3477709  38.8421791  31.7713517
  56.2533033  38.5080851  32.2778032  54.4742618  38.4918267  32.3212036
  55.3192821  38.2363173  30.3766108  55.9621216  37.1876339  30.0898123
  54.5884548  38.8390946  29.4418248  54.5532390  38.4562602  28.5078553
  54.0724070  39.6766019  29.6706865  55.6741792  42.5528565  33.0410625
  56.8155827  43.0252269  33.0873676  54.5878631  43.3396837  32.9379010
  53.6818852  42.9152869  33.0764318  54.6447979  44.7584081  32.6467632
  55.6625094  45.0586602  32.3973413  53.7299048  45.0565377  31.4342532
  52.7166242  44.7970731  31.7409123  53.7917389  46.1303338  31.2575090
  54.0862380  44.2949683  30.1262943  54.0776747  43.2393379  30.3977199
  53.3074118  44.4860953  29.3880535  55.4487165  44.6577308  29.5348236
  55.9918273  45.7360718  29.8761041  55.9241132  43.8495542  28.6936062
  54.1756020  45.6457671  33.8021377  54.4627551  46.8422736  33.8474055
  53.4498016  45.1005133  34.8099963  53.1640864  44.1334681  34.7526409
  52.9255392  45.9120009  35.9001619  53.2867068  46.9355589  35.8002316
  51.3691616  45.9296401  35.8812985  51.0470863  45.8186050  34.8459058
  50.9822639  45.0997164  36.4725994  50.7960088  47.2292259  36.4327889
  49.9221290  47.2640920  37.3119951  51.2597948  48.3775804  35.9049885
  50.9075309  49.2626110  36.2407425  51.9579019  48.3488693  35.1756580
  53.4816626  45.5345176  37.2633545  52.9418533  45.9378771  38.2944539
  54.5972062  44.7786577  37.3230559  54.9052291  44.3374485  36.4683304
  55.2964136  44.4503454  38.5628176  56.1357735  43.7949516  38.3303673
  55.8392915  45.7145946  39.2914482  55.0180208  46.3963621  39.5123708
  56.3353484  45.4312790  40.2197584  56.8413365  46.4330749  38.4056164
  57.9855298  45.9883356  38.2702405  56.4468762  47.5638165  37.7815246
  57.0943286  48.0608005  37.1866195  55.5061877  47.9074065  37.9124892
  54.4737877  43.5849394  39.5209935  54.6671095  43.5992424  40.7348024
  53.5236158  42.7964082  38.9829173  53.4363336  42.7892926  37.9767212
  52.6205914  41.9590302  39.7601939  52.2535184  41.1719495  39.1015130
  53.1996752  41.5141826  40.5694355  51.4462409  42.6947244  40.3456073
  50.6237610  42.0723406  41.0130338  51.3133224  44.0169017  40.1258511
  51.9539800  44.4623888  39.4846035  50.3610254  44.8465111  40.8308310
  50.3235632  44.4434601  41.8428812  50.8778492  46.2981746  40.8972727
  50.9123109  46.7184899  39.8921620  50.2085499  46.8946648  41.5172228
  51.8784524  46.3087381  41.3294542  48.9452341  44.8356488  40.2721934
  48.7059989  44.8429819  39.0641156  47.9400880  44.8353493  41.1674471
  48.1483975  44.6226203  42.1325651  46.5614151  45.0721203  40.7995918
  46.5104778  45.4079132  39.7638564  45.6986572  43.8276306  40.9503106
  45.6802817  43.5344416  41.9999781  44.2613998  44.1046526  40.4696204
  44.2789214  44.3974712  39.4198342  43.6591272  43.2035015  40.5849239
  43.8278333  44.9092618  41.0635276  46.3215053  42.6826605  40.1237286
  47.3286897  42.4780000  40.4867652  45.7100054  41.7861012  40.2254591
  46.3663211  42.9741240  39.0743758  46.0666519  46.2049335  41.6774424
  46.0733769  46.1288198  42.9099186  45.6713288  47.3348264  41.0615075
  45.8249710  47.4130350  40.0663308  45.1643870  48.4953916  41.7734922
  45.7915425  48.6689892  42.6479286  45.1599914  49.7797455  40.9038320
  44.4823114  49.6340150  40.0626354  44.8121989  50.6168639  41.5091197
  46.5408815  50.0738615  40.3890600  47.6248116  50.2242909  41.2649895
  47.4481115  50.1375196  42.3370656  48.9127355  50.4808167  40.7877176
  49.7456334  50.5796551  41.4838597  49.1348128  50.5849120  39.4173411
  50.4353262  50.8576691  38.9585367  51.0726819  50.9496352  39.6705196
  48.0640652  50.4430289  38.5275126  48.2361195  50.5175787  37.4537621
  46.7722291  50.2054469  39.0151686  45.9350365  50.1213023  38.3222557
  43.7955248  48.2761819  42.4005557  42.9953371  47.4589594  41.9420507
  43.4976023  49.0005232  43.4997103  44.2582504  49.4731318  43.9667810
  42.1655728  49.0642332  44.1037132  41.8714869  48.0300877  44.2830333
  42.0899789  49.8355290  45.4352689  41.0678868  49.7904631  45.8112967
  43.0403253  49.2266327  46.4681566  44.0627366  49.2717665  46.0930062
  42.9710449  49.7864284  47.4008560  42.7652213  48.1872836  46.6475215
  42.4854405  51.1989069  45.3406644  42.4130869  51.6136704  46.2034138
  41.1380815  49.6479777  43.1429230  41.4761987  50.4883946  42.3123393
  39.8516839  49.2296250  43.2271507  39.6280872  48.4473865  43.8256545
  38.7680638  49.8508881  42.4626865  38.9855811  49.7788098  41.3970458
  37.4151906  49.1446059  42.7413842  37.5211401  48.1289932  42.3600644
  37.3079542  49.1156881  43.8257108  36.1497813  49.8074422  42.1110928
  35.3127654  49.2101857  42.4727416  36.0642367  50.8232054  42.4971066
  36.1292929  49.8401376  40.5784144  36.9908540  49.1943970  39.9381361
  35.2542464  50.5670838  40.0286945  38.6165486  51.3273336  42.7947178
  38.5558573  52.1813550  41.9177263  38.6596249  51.6915270  44.0900925
  38.7274194  50.9573478  44.7803708  38.5294676  53.0623914  44.5531562
  37.5936131  53.4896160  44.1929412  38.5295973  53.1054204  46.1043101
  39.4129220  52.5554975  46.4289972  38.6065991  54.1419924  46.4324703
  37.2839081  52.4709765  46.7134573  37.3363028  52.2088706  47.9412196
  36.3001455  52.2153618  45.9786537  39.5990235  54.0090944  44.0066614
  39.3356913  55.1948042  43.7839210  40.8427972  53.5246484  43.7781398
  41.0855807  52.6255927  44.1691057  41.9077614  54.3404605  43.2072424
  41.6847192  55.3853150  43.4231834  43.3326506  54.0080185  43.7629969
  43.9417522  54.8788058  43.5204603  43.2071984  53.9426461  44.8437782
  43.9824933  52.8223318  43.2849209  44.8426365  52.7382094  43.7028646
  41.8624750  54.4142810  41.7120178  42.2805341  55.4287015  41.1242530
  41.2597089  53.4381217  41.0401286  40.8843989  52.6450324  41.5403796
  41.1847241  53.4358838  39.6000503  41.2662442  54.4552046  39.2226398
  42.3425283  52.5910664  39.0017779  43.2412342  52.7384340  39.6007017
  42.0011481  51.5612784  39.1071171  42.6546617  52.8733989  37.5442327
  41.8144774  53.5790880  36.6541927  40.8408688  53.9196950  37.0065741
  42.2149251  53.8432954  35.3367512  41.5382793  54.3594376  34.6556862
  43.4488807  53.3890434  34.8803438  43.8910117  53.6442298  33.5712766
  43.2600402  54.1503078  33.0542082  44.3025721  52.7197817  35.7520644
  45.2853167  52.4003730  35.4052336  43.9054345  52.4564666  37.0670066
  44.5726025  51.9184484  37.7404480  39.8233285  52.9166825  39.1492352
  39.7683511  51.8076939  38.6072843  38.7310447  53.6672684  39.3577224
  38.7597252  55.0339959  39.8864401  39.4443281  55.6171101  39.2704880
  39.1381083  54.9903553  40.9077239  37.3256698  55.5509823  39.8189482
  37.1597554  56.1140056  38.9004841  37.1016720  56.1836503  40.6778181
  36.4866398  54.2715430  39.8493777  35.5694825  54.3889614  39.2721998
  36.2373442  54.0051514  40.8765032  37.3669479  53.1701793  39.2181078
  37.2892971  52.2609438  39.8142282  36.9740105  52.8711492  37.7927141
  37.5661203  53.4240605  36.8565923  35.9745493  51.9937729  37.5905577
  35.6647096  51.4403317  38.3765612  35.4359793  51.6851586  36.2745453
  36.2371428  51.3439544  35.6189419  34.3635887  50.5644549  36.3730616
  34.6983466  49.8129098  37.0880555  33.4543063  51.0379343  36.7433625
  34.0826132  49.9063262  35.0481750  35.1060272  49.2396440  34.3603141
  36.1073024  49.2147877  34.7903486  34.8547184  48.6108912  33.1360205
  35.6702242  48.1255958  32.5997926  33.5754412  48.6310208  32.5872013
  33.3318690  47.9743803  31.3671993  34.1140142  47.5500756  31.0069022
  32.5426027  49.2745327  33.2687122  31.5367713  49.2793455  32.8487355
  32.7952548  49.9142662  34.4911029  31.9875913  50.4235294  35.0168698
  34.9216075  52.9007096  35.4703020  34.0574385  53.6645101  35.9024072
  35.4495938  53.0989336  34.2426051  36.0392604  52.3712569  33.8646113
  35.2299484  54.2861219  33.4464797  34.4636577  54.9269219  33.8826828
  36.5562393  55.0613909  33.4104735  37.3314140  54.4358996  32.9677944
  36.4335969  55.9646389  32.8128096  36.8458121  55.3343306  34.4252399
  34.7943617  53.9434010  32.0326248  34.6945970  54.8102902  31.1628921
  34.4881997  52.6587395  31.7726657  34.4528797  51.9943262  32.5325386
  34.2674622  52.1717897  30.4202265  34.4815549  52.9752964  29.7154992
  35.1699391  50.9618100  30.0796233  35.0703504  50.2239517  30.8757053
  34.8257745  50.5301934  29.1397521  36.5383897  51.3435840  29.9541729
  37.0680363  50.5711835  29.7432899  32.8303082  51.7806625  30.1436603
  32.5248280  51.2142991  29.0971560  31.8630945  52.1020122  31.0283360
  32.1073450  52.6574839  31.8357344  30.4641611  51.6791896  30.8706967
  30.4666229  50.5895855  30.8999539  29.9265802  52.0641883  31.7372313
  29.7598999  52.1366708  29.6107395  28.8962771  51.4240539  29.1051637
  30.1773768  53.2905801  29.0491958  30.8469429  53.8262925  29.5828556
  29.6811183  53.8533549  27.7974314  28.6018024  53.7112385  27.7428491
  29.9880720  55.3739431  27.6909428  31.0736519  55.4720004  27.6904373
  29.5935647  55.7035020  26.7297691  29.3910749  56.2498282  28.8217977
  29.8981301  56.0062512  29.7554283  29.5735950  57.2949421  28.5717528
  27.8935618  56.0205989  28.9828145  27.1571660  56.2182537  27.9844459
  27.4919886  55.6390571  30.1116364  30.2139006  53.1386341  26.5522413
  29.7191957  53.3315517  25.4401668  31.2357770  52.2660241  26.6950743
  31.6817964  52.1884811  27.5979326  31.7287380  51.4263935  25.6038186
  31.8131553  50.4170847  26.0066446  30.9608387  51.4453345  24.8304679
  33.0436022  51.8215517  24.9964612  33.4858253  51.2116510  24.0252507
  33.7369635  52.8186512  25.5609493  33.2797583  53.3503635  26.2878225
  35.0470164  53.2551629  25.1084232  35.4155273  52.5833258  24.3332239
  35.0732699  54.6996876  24.5882067  36.0938372  55.0784846  24.5329297
  34.4605326  54.6582504  23.1661205  33.4397341  54.2799674  23.2206465
  34.4530251  55.6630612  22.7437467  35.0570609  54.0025221  22.5318700
  34.3429093  55.7456909  25.4767293  34.1291050  56.5896996  24.8209566
  33.4075084  55.2736066  25.7771640  35.0897125  56.2435951  26.7255981
  36.0250655  56.7162470  26.4259068  34.4706415  56.9677674  27.2551497
  35.3034709  55.4001529  27.3821134  36.0406497  53.0260015  26.2221789
  35.6676956  52.9555315  27.3947309  37.3358368  52.8608159  25.8952525
  37.5746865  52.8499051  24.9139619  38.4084345  52.6903308  26.8704668
  37.9711775  52.4648864  27.8431335  39.3799798  51.5308289  26.4789171
  38.8006664  50.6092009  26.4232658  39.7973127  51.7568517  25.4976694
  40.4396417  51.3699258  27.4204143  41.0094305  50.6496522  27.1408674
  39.1755654  54.0063352  26.9267122  39.8010525  54.3392427  25.9170426
  39.1584179  54.8296686  27.9849527  38.2905823  54.6847130  29.1508602
  38.7870154  54.0590090  29.8925805  37.3556677  54.2141868  28.8464938
  38.0904400  56.1169455  29.6327669  37.8662126  56.1439807  30.6991112
  37.2884883  56.6072026  29.0808405  39.4418726  56.7700238  29.3287657
  40.1444680  56.5989351  30.1443559  39.3473496  57.8410996  29.1499875
  39.9413540  56.0640616  28.0485994  39.6945958  56.6609096  27.1705441
  41.4511559  55.8092734  28.0839572  41.8367734  54.6917575  28.4333858
  42.3469185  56.7335740  27.7406077  42.0059173  58.0945378  27.3371283
  41.7122657  58.6697373  28.2152026  41.1779251  58.0655586  26.6288288
  43.2954093  58.6089914  26.7039469  43.3469057  59.6971129  26.7418771
  43.3861612  58.2773091  25.6696103  44.3742216  57.9675024  27.5800570
  44.6225804  58.5177265  28.4876199  45.2720681  57.8414979  26.9749998
  43.7896917  56.5901631  27.9462131  44.1295171  55.8810713  27.1913582
  44.2374415  56.1171756  29.3250292  43.6735907  56.5324366  30.3337375
  45.2693201  55.2481154  29.3871506  45.6190456  54.8710810  28.5178771
  45.8693346  54.7880358  30.6289454  45.1148674  54.3066361  31.2511454
  46.9975277  53.7590789  30.3298265  46.5982434  52.9481650  29.7206550
  47.8067646  54.2526092  29.7916227  47.8283590  53.0440153  31.7918933
  46.4428019  55.9067191  31.4861600  47.2399264  56.7239475  31.0307610
  46.0788659  55.9231532  32.7761017  45.3312324  55.3032597  33.0533658
  46.6572606  56.7875244  33.7763132  47.0270074  57.6536981  33.2275603
  45.5856965  57.2541190  34.7606881  46.0537847  57.8431710  35.5493651
  44.5446516  58.1118214  34.0321936  44.0757740  57.5232622  33.2436181
  43.7841600  58.4406532  34.7404459  45.0327677  58.9822576  33.5938057
  44.8354044  56.1622484  35.2576854  44.1713684  56.4835247  35.8720454
  47.7492886  55.9957301  34.4702265  47.5151000  54.9179160  35.0164119
  49.0075032  56.4752334  34.4357214  49.1703865  57.3838332  34.0258254
  50.1625724  55.7023993  34.8894071  49.8506472  54.6584503  34.9205871
  51.3493630  55.8276589  33.9432490  52.2175184  55.3251574  34.3697448
  50.9857301  55.1724663  32.6079634  50.1178825  55.6747673  32.1806065
  51.8277606  55.2553084  31.9207800  50.7523167  54.1202457  32.7705996
  51.6679337  57.1784501  33.6486886  52.4189995  57.2071694  33.0514653
  50.6201841  56.0538740  36.2915458  51.6392330  55.5503850  36.7740707
  49.8676587  56.8813132  37.0230701  49.0457182  57.2795391  36.5918749
  50.1844017  57.2661698  38.3801907  50.5890668  56.3899100  38.8866629
  51.2156076  58.4359594  38.5043230  51.4576784  58.5585572  39.5600080
  52.1138417  58.1502403  37.9569292  50.7126076  59.6711501  37.9838243
  51.3791080  60.3549997  38.0824487  48.8852071  57.6630347  39.0421914
  47.8536769  57.7581436  38.3741348  48.8915512  57.8874040  40.3750357
  49.7563793  57.7817804  40.8859324  47.6918536  58.2794046  41.1154628
  48.0191884  58.8843067  41.9610659  47.0857819  58.8896548  40.4458575
  46.8609388  57.1404454  41.6233067  45.7336482  57.3527280  42.0677816
  47.4140173  55.9160149  41.6206101  48.3791961  55.8244977  41.3374956
  46.7019736  54.7238126  42.0244163  45.7118088  55.0229799  42.3681775
  46.5388920  53.6773825  40.9010965  47.4952789  53.1746962  40.7571177
  45.7704119  52.9377060  41.1256338  46.1804579  54.2767562  39.6088727
  44.9758232  54.9129184  39.5228799  44.2568950  55.0097055  40.2256418
  44.9312133  55.3920314  38.3052800  44.0417299  55.9540524  38.0205861
  46.0450715  55.0833752  37.6073535  46.8624760  54.3652126  38.4387634
  47.8289803  54.0110423  38.0802471  47.4297715  54.0151541  43.1322486
  48.6413683  54.1662043  43.3104484  46.7047738  53.1852866  43.8867195
  45.7386529  53.0492846  43.6255430  47.2154430  52.4641997  45.0470366
  48.2722061  52.7196400  45.1251470  46.5285441  52.8224852  46.3621694
  45.4806292  52.5351926  46.2759286  47.1537050  52.1221202  47.5830939
  48.2015710  52.4093097  47.6702639  46.6198152  52.4190896  48.4857954
  47.0828070  51.0415832  47.4585394  46.6525268  54.2124802  46.6121020
  46.2180672  54.4286584  47.4404208  47.0144832  50.9778477  44.8368010
  45.9216008  50.5322908  44.4718241  48.0729049  50.1585994  45.0358831
  48.9552918  50.6095977  45.2310580  48.0511410  48.7023766  44.9136932
  47.5959412  48.4055717  43.9688127  49.4614927  48.1108937  44.9844121
  49.8868595  48.3618057  45.9561145  49.4582229  46.5765239  44.8048024
  49.0333921  46.3248428  43.8330636  50.4799830  46.2012839  44.8622627
  48.8589806  46.1192974  45.5921741  50.3370990  48.7546549  43.8908417
  50.3842977  49.8319621  44.0498500  51.3427200  48.3366902  43.9370110
  49.9041993  48.5510929  42.9114229  47.1590147  48.0559766  45.9672371
  47.2688969  48.3606505  47.1533946  46.2502570  47.1416742  45.5587427
  46.1765872  46.9315145  44.5736006  45.3649742  46.4401333  46.4844326
  45.4885032  46.8852795  47.4716938  44.3391884  46.5865835  46.1461792
  45.6435560  44.9719788  46.5737210  45.2117655  44.3250077  47.5253503
  46.3672468  44.4094436  45.5920959  46.6495489  44.9770308  44.8058073
  46.7663878  43.0262862  45.6137308  47.0542526  42.7193396  46.6192241
  45.6216851  42.1118102  45.1275453  45.3286056  42.4010358  44.1183114
  45.9601678  41.0757029  45.1241750  44.7668584  42.2120631  45.7963651
  47.9576274  42.8338841  44.6984956  48.2119391  43.6584531  43.8176775
  48.7171338  41.7348283  44.8839231  48.5709724  41.1846777  45.7182316
  49.7958252  41.3511536  43.9842034  49.6401624  41.9249140  43.0706021
  51.2213354  41.6160224  44.4935532  51.9398858  41.2550733  43.7576855
  51.4252868  43.1197462  44.7115521  50.7073459  43.4813517  45.4476920
  52.4376458  43.3010479  45.0726035  51.2760805  43.6474953  43.7695760
  51.4929663  40.9940636  45.7423706  52.3932421  41.1930042  46.0098148
  49.6671975  39.8854335  43.6182617  49.1453332  39.0802196  44.3908995
  50.1171373  39.4959818  42.4042824  50.4027767  40.2095040  41.7489997
  50.1290273  38.1078405  41.9624641  50.0216314  37.4235609  42.8040856
  49.0780096  37.7696240  40.8890358  49.1261327  36.7094078  40.6405882
  47.6785867  38.1030434  41.4536560  47.6295427  39.1632604  41.7019204
  46.9198272  37.8698565  40.7066562  47.4979639  37.5115122  42.3511890
  49.3333468  38.4480527  39.5208832  49.1560436  39.5161586  39.6466377
  50.3792288  38.2817972  39.2628342  48.4367707  37.9094761  38.3956221
  47.3906763  38.0758051  38.6527620  48.6687396  38.4285092  37.4656251
  48.6138600  36.8414424  38.2689602  51.5218415  37.7589691  41.4663972
  52.2906350  38.6335672  41.0671771  51.9001283  36.4641896  41.4903632
  51.2398212  35.7695847  41.8091388  53.2291085  36.0175617  41.0725068
  53.8678868  36.8994913  41.0249508  53.8378095  35.0270032  42.0624013
  54.8070280  34.6937753  41.6913557  54.0184474  35.7048948  43.4262979
  53.0495247  36.0380013  43.7982233  54.4530179  34.9954445  44.1305194
  54.6813566  36.5636883  43.3208200  52.9931281  33.9036711  42.2823159
  53.4103911  33.3072211  42.9082067  53.2242740  35.3216386  39.7265556
  54.2749616  35.1309285  39.1139064  52.0457140  34.9292687  39.2138780
  51.1918287  35.1795244  39.6917391  51.9478690  34.1533615  37.9902607
  52.1892931  34.7799732  37.1316739  52.6364881  33.3092986  38.0284825
  50.5519302  33.6364039  37.8385906  49.6286610  34.1152455  38.4996009
  50.3483016  32.6205471  36.9865699  51.1077488  32.3026768  36.4015077
  49.0535843  32.0013278  36.8244231  48.5470918  31.9826989  37.7894191
  48.1636346  32.7621374  35.8137301  47.1291193  32.4192610  35.8314272
  48.2006324  33.8177756  36.0827264  48.6188601  32.6668668  34.4028916
  47.9451831  31.8243715  33.5483672  48.6043799  31.9063716  32.4021431
  48.2420021  31.3102374  31.5646436  49.6481445  32.7537537  32.4982262
  50.3085165  32.9970500  31.7737846  49.6676189  33.2458528  33.7771966
  50.4392190  33.9551681  34.0765396  49.2386933  30.5632166  36.3957276
  50.3429586  30.1545865  36.0343100  48.1710043  29.7517421  36.4852336
  47.3392327  30.1251482  36.9197715  48.1591274  28.3665564  36.0542039
  49.0203057  28.1563739  35.4199371  48.1366835  27.3507462  37.2022487
  47.9921155  26.3473073  36.8018616  49.4785005  27.4136671  37.9575731
  49.6235653  28.4167505  38.3586725  49.4695875  26.6935353  38.7757609
  50.2927601  27.1752833  37.2732806  46.9479552  27.5851091  38.1637979
  46.0114903  27.4952854  37.6132824  46.9728744  26.8421703  38.9609934
  47.0206307  28.5832612  38.5956676  46.9717407  28.1144092  35.1525795
  45.8582612  28.5919435  35.3995580  47.1750955  27.3370363  34.0768894
  48.1246797  27.0575194  33.8762413  46.1409205  26.9751008  33.1349325
  45.2661189  27.6108594  33.2714329  46.6673283  27.1617216  31.6925454
  47.5209160  26.4985388  31.5522753  45.8730146  26.8820504  31.0004834
  47.1010534  28.6295680  31.4174411  46.2367815  29.2649029  31.6110498
  47.8929085  28.8679096  32.1275524  47.6017071  28.8720318  29.9984910
  47.5556873  27.9172678  29.1861709  48.0326467  30.0242822  29.7206585
  45.6798812  25.5611529  33.4679237  46.4776025  24.6262998  33.5521283
  44.3772686  25.3869796  33.7746924  43.7537737  26.1724592  33.6547956
  43.8402565  24.1610868  34.3430736  44.6083307  23.6986185  34.9629802
  42.5759578  24.4052121  35.2172225  42.0561477  25.2061191  34.6914425
  41.9613575  23.5050803  35.2058512  42.8353581  24.8327768  36.6788890
  43.5617313  24.1345375  37.0947552  43.3627530  26.2670879  36.8255563
  42.6366612  26.9659817  36.4103009  43.5194829  26.4910094  37.8807320
  44.3070958  26.3640757  36.2899161  41.5444608  24.6607878  37.4936882
  41.2347505  23.6160184  37.4684696  41.7230398  24.9614545  38.5260691
  40.7583385  25.2826822  37.0654850  43.5243116  23.1302074  33.2557119
  43.3117085  23.5014995  32.1040127  43.4983622  21.8247908  33.5315131
  43.7698942  21.2434797  34.8419240  42.8821840  21.3361166  35.4676151
  44.5990019  21.7765237  35.3072663  44.1143738  19.7967465  34.5280007
  43.8980367  19.1494170  35.3778606  45.1642036  19.6955551  34.2528297
  43.2054299  19.4802633  33.3392134  42.2112757  19.1579340  33.6488267
  43.6571833  18.7115734  32.7122092  43.1069646  20.8048718  32.5581898
  43.8448151  20.8471735  31.7570122  41.7109269  20.9545506  31.9697980
  40.8143116  21.4415617  32.6526217  41.4822741  20.4721447  30.7273301
  42.2823565  20.1510336  30.2011598  40.1853253  20.4951763  30.0661174
  39.6264420  21.3808626  30.3682901  40.3772231  20.5315819  28.5339777
  40.9532884  19.6527313  28.2443750  39.3923969  20.4893375  28.0687543
  41.1150854  21.8097135  28.0646082  40.5173693  22.6801589  28.3350914
  42.0908035  21.8758129  28.5459677  41.3168044  21.8075673  26.5513181
  41.6755372  20.7760543  25.9743911  41.1060351  22.9623219  25.8854051
  41.2309662  22.9940738  24.8836639  40.8243187  23.7895485  26.3917976
  39.2800127  19.3447590  30.4989434  38.7873704  18.5484604  29.6914225
  39.0356615  19.2626920  31.8172754  39.4500684  19.9840037  32.3900542
  38.2990217  18.2168537  32.4676209  37.5756388  17.7701128  31.7855367
  39.2961843  17.1239539  32.9151909  39.8942176  16.7487350  32.0847295
  39.9504081  17.5903201  33.6518006  38.5499322  15.9743109  33.5593583
  37.9828979  16.1982946  34.6660098  38.4784544  14.8926202  32.9304789
  37.5235487  18.8467992  33.6287911  38.0916187  19.5020848  34.4982716
  36.1841905  18.6605137  33.6705107  35.7595517  18.1670231  32.8983395
  35.3139492  19.2287495  34.6877368  35.5282732  20.2903700  34.8107261
  33.8343119  19.0686640  34.2713425  33.6594782  18.0137756  34.0598175
  33.2153483  19.3772048  35.1138309  33.4681696  19.9108837  33.0275998
  33.6682509  20.9563487  33.2622724  34.0840935  19.6045271  32.1820925
  32.0018993  19.7441744  32.6717567  31.1404330  20.2407899  33.4421721
  31.7110302  19.0983787  31.6354512  35.5312509  18.7003585  36.1028594
  35.4119346  19.4516222  37.0824774  35.8453578  17.4030776  36.2793956
  35.8124053  16.7934902  35.4747736  36.1493266  16.8205207  37.5703052
  35.3726838  17.1257514  38.2715608  36.1572041  15.2795879  37.4831383
  36.9359371  14.9582584  36.7914576  36.3529562  14.8603253  38.4700528
  35.1882909  14.9303858  37.1262567  37.4748453  17.3441796  38.1124329
  37.5819295  17.7242898  39.2826052  38.5071178  17.4393056  37.2485495
  38.4187042  16.9997592  36.3435183  39.7909996  18.0161566  37.6120828
  40.1366747  17.5672343  38.5432523  40.8545565  17.7668488  36.5190278
  40.5095051  18.2313907  35.5953181  41.7856158  18.2368723  36.8357398
  41.0955677  16.2541134  36.2777681  41.3956122  15.8298623  37.2359357
  40.1605991  15.7961061  35.9550221  42.1752922  15.9389694  35.2450390
  42.0288288  15.0762849  34.3681708  43.3330112  16.6141251  35.3237318
  44.0680050  16.4297197  34.6559891  43.4637240  17.3033926  36.0503169
  39.7232147  19.4971807  37.9902257  40.3281179  19.9226852  38.9796977
  38.9420038  20.3170655  37.2526700  38.5756101  19.9596561  36.3819728
  38.6767214  21.7171575  37.5956172  39.6102457  22.2547779  37.7617372
  37.8678537  22.4238965  36.4993608  36.9934613  21.8128748  36.2753276
  37.4111111  23.8394698  36.9315511  38.2850337  24.4512603  37.1553195
  36.8424849  24.3006718  36.1240501  36.7839478  23.7640377  37.8198502
  38.6843292  22.5226272  35.1881111  39.4144787  23.3208347  35.3217047
  39.2041396  21.5732770  35.0591503  37.8310577  22.8123958  33.9429995
  37.3112689  23.7618833  34.0710342  38.4749914  22.8667671  33.0652226
  37.1009278  22.0143262  33.8084812  37.9787022  21.8678945  38.9475600
  38.3621668  22.6999727  39.7756976  36.9567525  21.0312152  39.2302851
  36.6565355  20.4027870  38.4988159  36.2293579  21.0202334  40.4911889
  35.8364496  22.0261298  40.6391578  35.0460972  20.0370669  40.4059435
  35.4239528  19.0241560  40.2668871  34.4663449  20.0846766  41.3277465
  34.4097227  20.3058504  39.5628052  37.0856178  20.6647049  41.7015775
  36.9734466  21.2799477  42.7705335  37.9868308  19.6744953  41.5577927
  37.9357302  19.1252897  40.7117068  38.9554473  19.2947715  42.5654583
  38.3971895  19.0575910  43.4711033  39.7140998  18.0301498  42.1080872
  40.2851858  18.2543482  41.2071455  40.3932854  17.7079027  42.8973678
  39.0001593  17.2341723  41.8964079  39.9330366  20.4137758  42.9157347
  40.1976567  20.6678287  44.0919062  40.4576964  21.1407623  41.9028123
  40.2822124  20.8395780  40.9548709  41.3114781  22.2976518  42.1110414
  42.1435522  22.0346780  42.7641852  41.8825373  22.7891068  40.7533974
  42.2068713  21.9127457  40.1922397  41.1161447  23.3189568  40.1877107
  43.0833656  23.7208022  40.8383330  44.4032846  23.3727155  40.7877497
  44.6104842  22.3126303  40.6415051  45.2154127  24.4786083  40.9382095
  46.2249719  24.4880678  40.9664971  44.4020145  25.5781471  41.0832882
  44.7308906  26.9169959  41.2946490  45.7852283  27.1931989  41.3081565
  43.6793849  27.8269411  41.4771992  43.8963905  28.8740397  41.6883700
  42.3496188  27.4157225  41.3933041  41.5329348  28.1280227  41.5105859
  42.0221651  26.0697313  41.1548701  40.9735395  25.7779092  41.0972079
  43.0731316  25.1596990  41.0239891  40.5952048  23.4468881  42.8122101
  41.1110076  24.0322204  43.7603396  39.3575205  23.7538678  42.3672707
  39.0412455  23.2519039  41.5498958  38.5021462  24.8019017  42.9080959
  39.0314265  25.7547698  42.9100601  37.2276840  24.9441505  42.0331483
  37.6185933  25.2360948  41.0584393  36.7557632  23.9646233  41.9562249
  36.1817343  25.9852334  42.5023377  36.6866456  26.7561664  43.0844268
  35.4828387  26.6300702  41.2967688  34.9772815  25.8597634  40.7144129
  34.7516220  27.3586291  41.6469471  36.2227751  27.1302260  40.6719178
  35.1154567  25.4040657  43.4525467  35.6004956  25.0061356  44.3438875
  34.4169503  26.1899770  43.7398331  34.5741025  24.6046730  42.9465763
  38.1320510  24.6013476  44.3672836  38.0715060  25.5544330  45.1482967
  37.8806493  23.3456956  44.7847702  37.8830939  22.6224472  44.0797843
  37.5426010  22.9775364  46.1465438  36.6284817  23.5130390  46.4029067
  37.2601275  21.4619559  46.2088210  38.1687076  20.9121102  45.9633582
  36.9339474  21.1936225  47.2136612  36.4778926  21.2079373  45.4935012
  38.6011652  23.3458569  47.1782971  38.2724946  23.7273966  48.3039973
  39.8881319  23.2227517  46.8082932  40.0812412  22.7904244  45.9161602
  41.0103302  23.5871408  47.6536485  40.7299061  23.5798465  48.7069330
  42.1483201  22.5943572  47.4456368  42.3547927  22.5384226  46.3768339
  43.4322927  23.0033216  48.1962760  43.2267091  23.0590196  49.2652634
  44.2113660  22.2629248  48.0147329  43.7674093  23.9774278  47.8400239
  41.6736880  21.2125280  47.9433387  40.7962686  20.9029684  47.3755269
  42.4712435  20.4824753  47.8053971  41.4178950  21.2749307  49.0010611
  41.4711636  25.0192655  47.4233002  41.6449214  25.7829082  48.3753796
  41.6676503  25.4420200  46.1584011  41.3203833  24.8868782  45.3894261
  42.3783370  26.6723864  45.8540466  42.9477320  26.9995066  46.7240357
  43.3553294  26.4426855  44.6837508  42.7825509  26.1543742  43.8023311
  43.9173063  27.3518220  44.4698516  44.3365131  25.3312709  45.0095223
  45.2319679  25.4734868  45.8521565  44.2077028  24.1802860  44.3207824
  44.8382128  23.4127216  44.5035441  43.4812268  24.0903569  43.6249044
  41.4794144  27.8375193  45.4643498  41.9495187  28.9595579  45.2868186
  40.1548059  27.6434886  45.3503919  39.7817175  26.7070937  45.4141811
  39.2258818  28.7432374  45.1360827  38.3672668  28.5448074  45.7775693
  39.7358526  29.6429159  45.4804775  38.7422372  28.9631637  43.7210095
  39.0775722  28.2104191  42.8065047  37.8954947  29.9799036  43.5302944
  37.4351670  30.8545850  44.6124663  38.2510059  31.5169941  44.9018128
  37.1474855  30.2394560  45.4650826  36.2510934  31.6097281  44.0136228
  36.1244520  32.5854688  44.4826548  35.3276154  31.0386274  44.1091937
  36.6593847  31.7440816  42.5493806  37.3394708  32.5568617  42.2944876
  35.7412041  31.8442820  41.9705853  37.3250470  30.3913977  42.2470961
  36.5199810  29.6819716  42.0555714  38.2442578  30.4505625  41.0401823
  39.3923799  30.8739308  41.1679162  37.7349176  30.0538035  39.8578491
  36.7370336  29.9025668  39.8197145  38.5153789  29.8280693  38.6463367
  39.5561110  30.1197947  38.7873061  38.4710154  28.3523072  38.2519750
  37.4239490  28.0530321  38.2052247  39.1462854  28.0707899  36.8960327
  40.1935702  28.3693999  36.9421582  39.0821361  27.0060531  36.6717094
  38.6415570  28.6374731  36.1135871  39.1628727  27.5164732  39.3452252
  38.6446907  27.6576586  40.2937272  39.1345846  26.4622369  39.0697523
  40.1996410  27.8371979  39.4469499  37.9434788  30.6638138  37.5142756
  36.7295817  30.6645060  37.2851744  38.7864280  31.4184647  36.7779404
  39.7459049  31.4897965  37.0852110  38.3910607  32.1410184  35.5824050
  37.4824613  32.7136978  35.7683746  39.5100878  33.1165328  35.1493277
  40.4240242  32.5567450  34.9506876  39.2037708  33.6435381  34.2457041
  39.6923431  33.8378889  35.9459001  38.1095773  31.1665632  34.4439972
  38.9048090  30.2544106  34.2081198  36.9852940  31.3121060  33.7135122
  36.3225632  32.0334236  33.9596588  36.6643572  30.4310210  32.6009971
  37.5740661  29.9950311  32.1881514  35.6765053  29.2956370  32.9214699
  35.4208180  28.7722245  32.0001868  36.3126448  28.3068778  33.9127376
  36.5681986  28.8294994  34.8345075  35.6056356  27.5070985  34.1331723
  37.2156342  27.8822157  33.4741330  34.3331511  29.8240972  33.4603340
  33.8718373  30.4721751  32.7151585  33.6703809  28.9849038  33.6714967
  34.5055974  30.3895802  34.3760807  36.0916210  31.2446704  31.4643419
  35.5343361  32.3291839  31.6535822  36.2170469  30.7387021  30.2254907
  36.8834408  29.9951267  30.0734568  35.4754016  31.2340069  29.0927686
  35.0558579  32.2148963  29.3162377  36.3801544  31.3563715  27.8472574
  36.8004831  30.3801546  27.6055463  35.7912967  31.7167768  27.0037796
  37.1881879  32.0586727  28.0520848  34.3110782  30.2947863  28.8162298
  34.3894308  29.0959640  29.0849768  33.1998739  30.8260782  28.2787927
  33.1847186  31.8296801  28.1663070  32.0373662  30.0699038  27.8579494
  32.2779721  29.0172830  27.7089608  30.8578488  30.1699711  28.8361677
  29.9858373  29.6770474  28.4063754  31.2324075  29.4844192  30.1637936
  32.1041188  29.9771237  30.5944474  30.3955243  29.5551262  30.8585795
  31.4629979  28.4352164  29.9791231  30.4189091  31.6335371  29.0602024
  30.1123006  32.0709477  28.1100628  29.5823106  31.6596750  29.7584283
  31.2518660  32.2044722  29.4704666  31.5756899  30.5947608  26.5132155
  31.9968951  31.6739345  26.0879719  30.7028347  29.8357066  25.8203904
  30.7069613  28.8473274  26.0282097  29.7935474  30.3195413  24.8016360
  30.2619107  31.1064970  24.2105050  29.4262479  29.1362549  23.8543201
  30.3979199  28.7674999  23.5257284  28.9221724  28.3633959  24.4345759
  28.5776513  29.4916585  22.6344312  27.7969857  30.4756101  22.6679655
  28.6662693  28.7017947  21.6531891  28.5846265  30.8671065  25.5545766
  27.9052862  30.1348227  26.2811218  28.3211692  32.1816184  25.4648776
  28.9275388  32.7656739  24.9069400  27.2402774  32.8084298  26.1832120
  26.8871459  32.1136164  26.9452039  27.7115492  34.1038757  26.8773559
  28.0596679  34.8131065  26.1264198  26.8820507  34.5415156  27.4327871
  28.5262283  33.8731880  27.5637817  26.0691851  33.1072560  25.2558029
  25.1416188  33.8213789  25.6434230  26.0298846  32.5467526  24.0205792
  26.8364691  32.0231074  23.7118457  24.9902349  32.8701239  23.0343538
  24.8980771  33.9555077  22.9950063  25.2704209  32.3401810  21.5914032
  24.7069122  32.9818039  20.9139984  26.3376269  32.4762515  21.4163139
  24.9200564  30.9764416  21.3563000  25.1279251  30.7446451  20.4481917
  23.5637204  32.5692064  23.4734677  22.6153776  33.2990958  23.1654149
  23.3760404  31.5223913  24.2891713  24.1861590  30.9660724  24.5222303
  22.0909316  31.1364739  24.8484119  21.2968100  31.4286191  24.1613011
  22.0076454  29.5990505  25.0802778  21.0512453  29.3610519  25.5458470
  22.0798750  29.0901505  24.1190787  23.0750820  29.1637266  25.9325014
  23.0110877  28.2152734  26.0664460  21.8063253  31.8072255  26.1937389
  20.7368664  31.6270657  26.7687565  22.7092598  32.6414164  26.7543721
  23.5658029  32.8418078  26.2581096  22.5513101  33.1730768  28.1069605
  22.0954990  32.4141454  28.7428525  23.9087791  33.5733293  28.7141655
  24.4803973  34.1154553  27.9608719  23.7874494  34.1997451  29.5978976
  24.7596847  32.3877517  29.1353962  24.7206443  31.0764693  28.7395865
  23.9884852  30.8139331  27.9759651  25.6570336  30.3490870  29.4252103
  25.8322211  29.3608170  29.3123773  26.3230826  31.1785841  30.2765946
  27.3483482  30.9380435  31.1657109  27.7205032  29.9165314  31.2438932
  27.8480406  32.0122870  31.9109507  28.6608270  31.8520192  32.6193238
  27.3194122  33.3025030  31.7634591  27.7013361  34.1419674  32.3444352
  26.2812835  33.5476709  30.8609590  25.8958779  34.5626540  30.7641473
  25.7901430  32.4782467  30.1227647  21.5682547  34.3241265  28.1977710
  21.1112657  34.7080790  29.2736160  21.1540062  34.8520285  27.0417733
  21.6357373  34.5393912  26.2109350  20.1370232  35.8752647  26.9023804
  20.2982258  36.6689419  27.6318935  20.2066711  36.4862449  25.4842756
  19.9518352  35.6943212  24.7799923  19.4527307  37.2719054  25.4351698
  21.5900647  37.0757450  25.1186845  22.3287391  36.3058066  25.3415203
  21.5769835  37.2662391  24.0455382  22.0397100  38.6063617  25.9921773
  21.1048253  39.6478360  24.8409206  20.0541478  39.3582984  24.8594614
  21.1985423  40.6925983  25.1372135  21.4986740  39.5199264  23.8326431
  18.7250042  35.3550905  27.1963930  17.7765268  36.1303854  27.2968794
  18.5591484  34.0204489  27.3508843  19.3691090  33.4335744  27.2107364
  17.2860996  33.3795157  27.6610075  16.5020681  34.1199015  27.5021909
  17.0104807  32.1704680  26.7542999  15.9753605  31.8535558  26.8815520
  17.2519383  32.5523661  25.2859079  18.2870449  32.8689659  25.1577734
  17.0546351  31.6903892  24.6485959  16.5856888  33.3690802  25.0080766
  17.8698675  31.0666437  27.0110938  17.6506399  30.3453788  26.4166894
  17.2002189  32.9100463  29.1117346  16.1577809  32.4350164  29.5608533
  18.2947361  33.0279430  29.8988467  19.1276347  33.4369463  29.4999787
  18.3667562  32.4973625  31.2508073  17.9321270  31.4980692  31.2754933
  19.8416548  32.4094921  31.7328475  20.3746800  31.8053030  30.9987229
  20.2721672  33.4104946  31.7602908  19.9659712  31.7712518  33.0948301
  19.6889012  30.4131805  33.3241242  19.3389662  29.7948284  32.4975133
  19.8577968  29.8503018  34.5996063  19.5844743  28.8108903  34.7813214
  20.2807853  30.6567870  35.6590053  20.6154111  30.0993333  36.9030535
  20.5192574  29.1443963  36.9242542  20.4724627  32.0208463  35.4575901
  20.7277371  32.6603892  36.3025282  20.3391240  32.5711614  34.1799032
  20.5264621  33.6332193  34.0216700  17.5156511  33.2712950  32.2671860
  17.6396598  34.4859534  32.4113448  16.6494231  32.5606630  33.0272158
  16.5293883  31.5748776  32.8430467  15.8275404  33.1757307  34.0639923
  16.1027331  34.2293723  34.1109764  14.3376289  33.0745198  33.7546364
  13.7673897  33.5659800  34.5429221  14.0484191  33.7590835  32.4116616
  14.6179895  33.2678403  31.6227578  12.9838423  33.6877998  32.1887397
  14.3377519  34.8084484  32.4684112  13.9032653  31.7290951  33.6184762
  12.9630823  31.7144099  33.4249803  16.0601628  32.6027291  35.4542718
  15.5634125  33.1563597  36.4396049  16.8388199  31.5147538  35.6110031
  17.3154086  31.1278631  34.8089569  17.0234205  30.8668115  36.9033245
  17.9898645  31.1636954  37.3106881  16.2304175  31.1925487  37.5764818
  16.9812418  29.3704046  36.7865632  16.6742680  28.8229833  35.7232373
  17.2931535  28.6495332  37.8829708  17.4967575  29.1356496  38.7445598
  17.3501013  27.1938053  37.8812102  17.2775448  26.8423486  38.9104395
  16.5045509  26.8140472  37.3076881  18.6199895  26.6766396  37.2778854
  19.5543214  27.4174782  36.9977425  18.7276347  25.3568269  37.0725055
  18.0283635  24.7160088  37.4195951  19.8800337  24.8096683  36.3844888
  20.7442057  25.4562910  36.5367548  20.2299625  23.4074813  36.8674977
  19.3773764  22.7530043  36.6862355  21.4673606  22.8570111  36.1268295
  22.3205272  23.5107559  36.3080073  21.6939865  21.8552050  36.4916935
  21.2625792  22.8158154  35.0570309  20.4995997  23.4727491  38.3830260
  19.6080515  23.8334300  38.8960107  20.7524571  22.4782981  38.7507624
  21.3293203  24.1527633  38.5760159  19.5586646  24.8088493  34.9042759
  18.6117157  24.1531132  34.4678908  20.3127821  25.5803054  34.0886974
  20.9859203  26.2097240  34.5019969  20.1613956  25.5855097  32.6413121
  19.1242010  25.8118859  32.3941677  21.0763132  26.6420411  31.9604273
  20.8669125  27.5893388  32.4572952  22.1010345  26.3386165  32.1748565
  20.8973023  26.8111553  30.4293435  20.9526468  25.8139216  29.9928087
  19.8999340  27.2215221  30.2713640  22.1221751  27.8873271  29.6202359
  21.0331714  29.3316529  29.6254130  20.7653190  29.5817037  30.6519745
  21.5477616  30.1769718  29.1685391  20.1292817  29.1078482  29.0588478
  20.4508100  24.2253605  32.0208974  21.4201175  23.5474167  32.3728608
  19.6238678  23.8304003  31.0383334  18.8308549  24.4241251  30.8415578
  19.7928863  22.6267822  30.2503275  20.6637659  22.0831561  30.6165767
  18.5843695  21.6878223  30.2746489  18.3707500  21.4444522  31.3154361
  17.3354020  22.3113576  29.6272960  17.5481222  22.5545851  28.5862916
  16.5093479  21.6016507  29.6725708  17.0627565  23.2201565  30.1638121
  18.8388456  20.4618443  29.6034464  18.0567153  19.9066423  29.6437375
  20.0253612  23.0703445  28.8376655  19.5477170  24.1319785  28.4224243
  20.7761966  22.2780122  28.0684232  21.3597785  21.6058082  28.5455745
  20.9181725  22.4144030  26.6286943  21.6554207  21.6914526  26.2795425
  19.5917379  22.1701131  25.8750055  18.8254631  22.8363136  26.2713628
  19.7380394  22.3756615  24.8146066  19.1766295  20.8133761  26.0439867
  18.3524665  20.6698963  25.5730634  21.5415241  23.7062502  26.1734037
  21.0962059  24.3384128  25.2103320  22.6287276  24.1243830  26.8443572
  22.9002281  23.6166578  27.6741776  23.3865853  25.3034099  26.4825210
  22.7313411  26.1741910  26.4602809  24.5154030  25.5570557  27.5227687
  24.1170552  25.4322340  28.5296639  25.3249868  24.8451282  27.3620412
  25.2927377  27.2076612  27.4239045  23.9589912  25.1798642  25.0779478
  24.4872937  24.1263542  24.7113497  23.8591671  26.2369905  24.2412429
  23.2043647  26.9749310  24.4575226  24.5471118  26.2797631  22.9630462
  24.3822850  25.3395702  22.4367681  24.0776645  27.4280270  22.0702466
  24.2063488  28.3638600  22.6140813  24.8799027  27.4838608  20.7552342
  24.7513289  26.5484843  20.2105872  24.5200798  28.3118002  20.1443787
  25.9364060  27.6308355  20.9795125  22.5797587  27.2225123  21.7550770
  22.0098628  27.2170140  22.6842113  22.2273294  28.0337609  21.1180771
  22.4434191  26.2715085  21.2401944  26.0384949  26.2760827  23.2457067
  26.5229329  26.9809258  24.1345453  26.7806872  25.3931261  22.5691010
  26.3852703  24.9281234  21.7644164  28.1516042  25.0967771  22.9282205
  28.5135992  25.8874393  23.5854207  28.3158186  23.7289825  23.6572729
  27.8876003  22.9630756  23.0106548  29.3846211  23.5494953  23.7736590
  27.6818873  23.6795806  24.9390219  27.8206919  22.8145511  25.3315228
  28.9643399  25.0233779  21.6557948  29.4600898  23.9582600  21.2943533
  29.0954376  26.1440013  20.9207373  28.7730761  27.0143756  21.3190223
  29.6981983  26.1730686  19.6068497  29.9319288  25.1639365  19.2675539
  28.6973601  26.8055312  18.6191306  28.3831801  27.7604324  19.0405019
  29.2287575  26.9791343  17.6834069  27.4538113  25.9273531  18.3498804
  27.7914600  24.9993709  17.8884228  26.9983209  25.7076258  19.3154619
  26.4238987  26.6023318  17.4424611  26.6043792  27.7888821  17.0696190
  25.4337931  25.8988126  17.1103078  30.9639079  27.0087670  19.5493915
  31.9508990  26.6074841  18.9284459  31.0028038  28.1887950  20.1914313
  30.2076107  28.5174961  20.7203197  32.1773343  29.0295004  20.1258304
  33.0757184  28.4279590  19.9874361  32.0312599  29.9881130  18.9150240
  31.8517847  29.3571274  18.0445385  31.1481198  30.5963402  19.1105318
  33.2428536  30.9113797  18.6415073  33.4705706  31.4993459  19.5306314
  34.0896839  30.2667212  18.4061440  33.0150121  31.8669772  17.4685697
  33.1558899  33.0898917  17.5655981  32.6824469  31.3046928  16.2872218
  32.5208726  31.8903481  15.4803742  32.5967096  30.3008929  16.2155548
  32.3482419  29.8342826  21.4021079  31.4448536  30.5387457  21.8283041
  33.5240958  29.7872507  22.0632165  34.2495366  29.1564788  21.7534393
  33.7918090  30.6333745  23.2159928  33.0560288  30.4460512  23.9980648
  35.1996905  30.3241383  23.7775118  35.8842250  30.5112831  22.9501736
  35.3843746  31.0472883  24.5718957  35.4249668  28.9017386  24.3170734
  35.1361226  28.1740746  23.5586705  36.9064197  28.7177230  24.6630396
  37.1959050  29.4447865  25.4217726  37.0682466  27.7100170  25.0457161
  37.5103666  28.8672899  23.7680657  34.5787861  28.6334214  25.5636468
  33.5228208  28.7451847  25.3175865  34.7635121  27.6191029  25.9173919
  34.8464698  29.3445945  26.3451053  33.7654742  32.1326384  22.9109416
  34.4294976  32.5788053  21.9703390  33.0672217  32.9495476  23.7245912
  32.5571083  32.5635426  24.5061817  32.9381427  34.3626586  23.4531597
  33.8326357  34.7421873  22.9592576  31.7193839  34.5833006  22.5123286
  31.7512618  35.6185257  22.1726344  31.9120699  33.9189418  21.6699513
  30.3394276  34.2807674  23.0937511  30.2351544  33.7709976  24.2416587
  29.3525008  34.6084063  22.3869342  32.8350659  35.2276312  24.7057385
  32.8473411  36.4596088  24.6260744  32.7975027  34.6272712  25.9108580
  32.9478809  33.6321819  25.9961990  32.5069063  35.3821301  27.1098324
  32.7628096  36.4344815  26.9866688  30.9944534  35.2710991  27.3700811
  30.5063604  35.6257442  26.4622864  30.6936713  34.2417720  27.5653142
  30.4562221  36.0938397  28.4937763  30.7108426  37.4483187  28.5211457
  30.0581225  37.8942644  29.5795500  30.1258595  38.9615881  29.7900987
  29.4048154  36.9028139  30.2252441  28.8357448  36.9723047  31.0567665
  29.6539448  35.7393977  29.5344856  29.2226722  34.7989329  29.8774597
  33.2961669  34.8663422  28.2967046  33.3102286  33.6676323  28.5711676
  33.9932470  35.7534634  29.0453148  33.9861846  36.7257393  28.7719486
  34.7569344  35.3728748  30.2317800  35.0087456  34.3144948  30.1645334
  35.6731515  35.9623746  30.2654774  33.9755559  35.6105999  31.4939715
  33.4119516  36.6834109  31.6842681  33.9742969  34.6268072  32.4134314
  34.5718413  33.8339928  32.2277291  33.1831403  34.6213309  33.6274620
  33.0575618  35.6304881  34.0198023  31.7998110  33.9906235  33.4478816
  31.3389673  33.8686008  34.4281024  30.9051174  34.8780471  32.5685331
  31.3651117  35.0001562  31.5879233  29.9274208  34.4097591  32.4548831
  30.7872738  35.8546113  33.0381468  31.9327287  32.5716353  32.8572622
  32.5224374  31.9506272  33.5315727  30.9418747  32.1343109  32.7345624
  32.4279231  32.6259711  31.8877618  33.9240100  33.8358905  34.6955872
  35.0065656  33.2859481  34.4346163  33.4044590  33.7598969  35.9324807
  32.4770506  34.1305897  36.0828132  34.1079618  33.1833770  37.0657131
  35.0836741  32.7984371  36.7692234  34.3161425  34.3075059  38.1116575
  34.8287776  35.0884672  37.5500492  33.3288823  34.6621065  38.4077584
  35.1338213  33.9587758  39.3682011  34.7494478  33.0301085  39.7900245
  36.6174424  33.7883066  39.0260845  37.0026653  34.7167789  38.6046093
  37.1735153  33.5423114  39.9307226  36.7331798  32.9843755  38.2991732
  34.9579806  35.0462449  40.4417974  33.9051806  35.1222275  40.7137131
  35.5425454  34.7846628  41.3238178  35.3014353  36.0035339  40.0497060
  33.3310162  32.0301155  37.7067478  32.1944758  32.2042961  38.1565778
  33.9231842  30.8166652  37.7897509  34.8162321  30.7030575  37.3318667
  33.3792632  29.6868672  38.5341294  32.3233267  29.5863912  38.2831276
  34.0958666  28.3392006  38.2210823  35.1371151  28.5545334  38.4609415
  33.7097184  27.5945549  38.9171372  34.0026134  27.7947994  36.7837131
  34.3962530  28.5393802  36.0917967  34.8187594  26.4958151  36.6578939
  34.4253877  25.7505512  37.3492254  34.7468152  26.1182590  35.6379056
  35.8628420  26.6974666  36.8973277  32.5565700  27.5503850  36.3468961
  32.0004873  28.4869150  36.3891226  32.5445443  27.1669749  35.3266249
  32.0931769  26.8229183  37.0133478  33.5707835  29.9099578  40.0281480
  34.7008574  30.0989257  40.4748124  32.4895828  29.8836859  40.8386071
  31.5708270  29.7841272  40.4310839  32.5880395  30.0971648  42.2771570
  33.6263068  30.1809916  42.5982073  31.8320528  31.3418984  42.7393610
  31.9197385  31.4418430  43.8212212  32.4358599  32.5888470  42.0569050
  32.3481170  32.4898353  40.9749629  31.8987013  33.4789148  42.3845338
  33.4875195  32.6791021  42.3288751  30.3237897  31.2232594  42.4546927
  29.9207371  30.3590386  42.9826823  29.8169698  32.1258374  42.7961399
  30.1642379  31.1007785  41.3834119  32.1318700  28.8918412  43.0827857
  32.1729378  28.9006032  44.3174276  31.7219812  27.7929423  42.4236762
  31.7185998  27.7550347  41.4143938  31.2711373  26.6261450  43.1568868
  32.1289195  26.2057716  43.6818584  30.5254667  26.9513365  43.8823695
  30.6698607  25.5689462  42.2795897  30.5348098  25.7384443  41.0697370
  30.2782178  24.4426997  42.8960276  30.4833588  24.3513084  43.8807429
  29.6574159  23.3292266  42.2204481  28.9429198  23.7333432  41.5033120
  30.6531381  22.3891710  41.4595316  30.0464915  21.6717141  40.9069607
  31.2267669  22.9953500  40.7583917  31.5973871  21.6498065  42.3737482
  31.2824091  20.3761282  42.8814463  30.3570341  19.8933971  42.5671993
  32.1412706  19.7276610  43.7806417  31.8752907  18.7522614  44.1880140
  33.3367044  20.3383932  44.1579599  34.2450908  19.7439126  45.0483957
  33.9546912  18.8844200  45.3623070  33.6685942  21.5882084  43.6385341
  34.6078938  22.0581520  43.9300301  32.8083064  22.2384894  42.7509006
  33.0785916  23.2136286  42.3457468  28.8560634  22.5367796  43.2252440
  29.0417437  22.6548972  44.4367869  27.9375507  21.7021898  42.7222577
  27.6970372  21.7704203  41.7436887  27.2408128  20.7413438  43.5286133
  27.7970125  20.5110377  44.4372938  25.8786576  21.3641959  43.9262341
  26.0528247  22.3454842  44.3676390  25.2637154  21.4722310  43.0327720
  25.1324979  20.5104567  44.9258320  25.5545742  19.3937056  45.2433988
  23.9984446  21.0111686  45.4523182  23.4740879  20.4681481  46.1233462
  23.6775169  21.9274038  45.1737159  27.1001634  19.4658225  42.7109140
  26.4019834  19.4698294  41.6920256  27.7282108  18.3599358  43.1551134
  28.3186744  18.4717367  43.9668724  27.6570341  17.0559479  42.5332947
  27.3585805  17.1579303  41.4899232  29.0603302  16.3494711  42.5876245
  29.4186677  16.5223898  43.6024115  28.9361303  15.2789745  42.4241879
  30.0711565  16.9002880  41.5923492  29.6366756  17.3862650  40.5154208
  31.3083971  16.8196908  41.8114374  26.5866863  16.1888463  43.2279920
  26.3058706  15.0760479  42.7752800  25.9078208  16.6596079  44.3102416
  26.1268753  17.5820327  44.6584469  24.8908490  15.8712976  45.0185376
  25.0414165  14.8181956  44.7810406  24.9526411  16.0471934  46.5711587
  24.3283815  15.2700715  47.0121585  25.9884935  15.8964774  46.8751236
  24.5047709  17.3327545  47.0218991  24.5674517  17.3759930  47.9788743
  23.4723120  16.2056093  44.5962977  22.5156781  15.5181807  44.9607970
  23.3030530  17.2808700  43.8073416  24.1133917  17.8656927  43.6609412
  22.0413989  17.7055470  43.2458398  21.3391597  17.7661515  44.0772762
  22.1886482  19.1080232  42.6219944  22.8819236  19.0617127  41.7821584
  21.2163972  19.4541202  42.2712164  22.5718582  19.8010124  43.3710040
  21.4584718  16.7146865  42.2324783  22.1599594  15.8739673  41.6846870
  20.1319072  16.8004178  41.9505342  19.5870985  17.4911593  42.4466783
  19.4446598  15.9269715  41.0013690  19.5155754  14.9027447  41.3674694
  17.9516126  16.3261847  40.9357340  17.8638513  17.3464108  40.5621879
  17.4227169  15.6479066  40.2661756  17.5147131  16.2659393  41.9325231
  20.0301958  15.9687666  39.5947920  20.1969252  14.9430119  38.9260689
  20.3971682  17.1700451  39.1385121  20.0237235  17.9842710  39.6050680
  21.3012397  17.3701572  38.0326857  21.5861590  16.4060599  37.6114534
  20.6933000  18.2242964  36.9266782  20.3679390  19.1744072  37.3503868
  21.7308012  18.4857823  35.8146254  22.0563123  17.5360907  35.3900909
  21.2800015  19.0971446  35.0328861  22.5899514  19.0090688  36.2343084
  19.4664889  17.4877297  36.3544493  18.7342792  17.3306836  37.1464768
  19.0197991  18.0868771  35.5609821  19.7764555  16.5239253  35.9505895
  22.4911132  18.0849317  38.6622445  22.2820489  19.1855910  39.1852073
  23.7089791  17.5397591  38.7098208  23.9857344  16.1356433  38.4174422
  23.9591006  15.9893104  37.3376377  23.2174005  15.5206340  38.8859778
  25.3720680  15.8868309  39.0092044  25.8958518  15.0941067  38.4750341
  25.3121141  15.6329487  40.0675289  26.0552684  17.2395064  38.8105381
  26.4498176  17.3928988  37.8060977  26.8566369  17.3663877  39.5384181
  24.9285952  18.2485490  39.0893565  24.8698881  18.4148530  40.1649934
  25.1510331  19.5735029  38.3849755  24.8878325  19.6683809  37.1864140
  25.6509316  20.6118291  39.0828560  25.8513174  20.5168144  40.0682073
  25.7689348  21.9255256  38.4810064  25.9154405  21.8127365  37.4068026
  24.4971450  22.7950220  38.7218642  24.6235407  23.7515716  38.2147780
  23.6851503  22.2398973  38.2521821  24.1672359  23.0357318  40.1733503
  24.8408852  24.0102240  40.9261209  25.6461149  24.5808240  40.4633897
  24.4874990  24.2525713  42.2590737  25.0348091  24.9996825  42.8338592
  23.4391957  23.5493571  42.8498240  23.0843765  23.8244270  44.1845587
  23.6276217  24.5078155  44.5838888  22.7613080  22.5793568  42.1110482
  21.9406444  22.0254083  42.5668474  23.1330510  22.3166837  40.7867492
  22.6156004  21.5437324  40.2185139  27.0213593  22.6866214  38.8770556
  27.6367594  22.4412991  39.9138149  27.4032517  23.6634818  38.0307271
  26.9298153  23.6871520  37.1388767  28.3893252  24.6850645  38.3114474
  29.0847620  24.3120869  39.0633480  29.1946792  25.0788085  37.0419764
  28.5384441  25.3621803  36.2190820  29.8096913  25.9326871  37.3261444
  30.1394708  24.0252806  36.4999848  30.0540382  23.2990335  35.3441452
  29.1689723  23.4614530  34.7290207  31.1544876  22.4870198  35.2073653
  31.3256944  21.8413171  34.4498326  31.9910904  22.7035324  36.2758544
  33.2262618  22.1708486  36.5984772  33.6603196  21.4541480  35.9013167
  33.8425444  22.5774826  37.7887362  34.8150191  22.1712999  38.0669603
  33.2275356  23.5043956  38.6358770  33.6917241  23.8102821  39.5734600
  31.9906916  24.0681586  38.3001284  31.5529593  24.8112294  38.9667145
  31.3801507  23.6555928  37.1201575  27.6653146  25.9331505  38.7871901
  26.5140032  26.1667472  38.4180442  28.3196782  26.7785024  39.6051517
  29.2214771  26.4919448  39.9583412  27.8046194  28.0786312  40.0037148
  26.8120064  28.2454529  39.5853976  27.7554803  28.2632220  41.5229493
  28.7673018  28.2181900  41.9258015  27.1262671  29.6364233  41.8616276
  26.1141945  29.6820334  41.4594715  27.0928695  29.7644420  42.9435687
  27.7280535  30.4310910  41.4206567  26.9936980  27.1135088  42.2277452
  25.9351202  27.2299409  41.9954579  27.3558274  26.1744537  41.8092510
  27.1847469  27.1019373  43.7509945  26.8223929  28.0405512  44.1702835
  26.6245852  26.2719690  44.1816577  28.2431012  26.9850663  43.9840766
  28.7322733  29.1305892  39.4136863  29.9430172  29.1206346  39.6633122
  28.1996057  30.0578770  38.5895288  27.1964254  30.0860023  38.4757846
  29.0066691  31.0042612  37.8333042  30.0575132  30.9834074  38.1220792
  28.8863124  30.7429427  36.3386672  27.8514364  30.8935831  36.0313570
  29.8024693  31.7094242  35.5536551  30.8376363  31.5590405  35.8601102
  29.7081342  31.5133026  34.4856018  29.5085503  32.7383758  35.7609459
  29.1920498  29.2535882  36.0478409  30.1480434  29.0358282  36.5240318
  28.4051264  28.6762558  36.5331638  29.2623596  28.8751803  34.5670732
  30.0494255  29.4518109  34.0811471  29.4813057  27.8115182  34.4733460
  28.3065085  29.0922409  34.0902784  28.6107782  32.4482796  38.0973726
  27.4376291  32.8155938  38.0083138  29.5937562  33.3185128  38.4095849
  30.5200796  32.9399642  38.5464250  29.4073288  34.7512591  38.5541421
  28.4410888  34.9602981  39.0132522  30.5239793  35.3362913  39.4601178
  30.5955030  34.6759582  40.3243769  31.4474513  35.2808189  38.8837304
  30.3031869  36.7844862  39.9375781  30.1321325  37.4067696  39.0591678
  29.4161995  36.7991997  40.5709334  31.5115381  37.3339053  40.7306304
  31.7555321  36.5968023  41.4956435  32.3428797  37.4193496  40.0308664
  31.2590567  38.6978453  41.3953123  30.9187679  39.3907547  40.6257796
  30.4744738  38.5700573  42.1410998  32.4790578  39.2427589  42.0481434
  33.2060545  39.3616500  41.3571728  32.2653608  40.1356468  42.4690766
  32.7942944  38.6010452  42.7615357  29.4725381  35.4470092  37.2032337
  30.4824689  35.3435669  36.5041426  28.3991788  36.1695465  36.8118034
  27.5674613  36.1037283  37.3810250  28.3348346  36.9453473  35.5859620
  29.1739236  36.6944370  34.9370608  27.0075714  36.6252453  34.8309176
  26.7805436  35.5655300  34.9473695  26.2058817  37.2185085  35.2707271
  27.0902219  36.9454348  33.3410235  28.1504298  37.2727525  32.8082906
  25.9462846  36.8492401  32.6274416  25.9533673  37.0517992  31.6379874
  25.0896045  36.5752361  33.0869215  28.5018928  38.4367257  35.9179367
  28.5362495  38.8452569  37.0767533  28.6565243  39.2907079  34.8915930
  28.6037241  38.8867452  33.9674039  28.9440016  40.7122681  35.0076334
  28.9585650  41.0074861  36.0567918  30.3320062  41.0216172  34.3860890
  30.3904729  42.0842799  34.1506556  31.1112532  40.7656424  35.1039685
  30.5158518  40.2581981  33.1911149  31.3763159  40.4560513  32.8142125
  27.8611473  41.5562371  34.3416959  28.1314961  42.6084967  33.7618593
  26.5889357  41.0998545  34.4151307  26.4571124  40.2669917  34.9710637
  25.4291474  41.6706361  33.7386210  25.7390811  42.5293619  33.1431126
  24.7671880  40.6263148  32.7971541  24.6284905  39.7339361  33.4075003
  23.7997362  40.9684935  32.4296614  25.5687130  40.1994994  31.5789620
  26.7572889  40.6712215  31.0993513  27.2325264  41.4687034  31.6705535
  27.1075355  40.0050112  29.9490109  27.9512489  40.1521205  29.4136548
  26.1119187  39.1113729  29.6389111  25.9664288  38.2256352  28.5834551
  26.7681551  38.1884057  27.8459271  24.8084283  37.4354840  28.5241519
  24.6662627  36.7244153  27.7103521  23.8186848  37.5478327  29.5080292
  22.9133495  36.9421552  29.4677523  23.9634903  38.4433928  30.5744877
  23.1647038  38.5109964  31.3130476  25.1174113  39.2137025  30.6357083
  24.3706395  42.1932245  34.7142656  23.1688375  42.1424645  34.4296002
  24.7710138  42.6892016  35.8961320  25.7259690  42.4649599  36.1367055
  23.8777618  43.1635014  36.9609768  24.5414220  43.4980153  37.7583192
  22.8201225  44.2749237  36.6947917  22.6419925  44.7941769  37.6364636
  23.2604746  45.2767249  35.6395124  23.4383587  44.7582425  34.6973697
  22.4802635  46.0250221  35.5001533  24.1789818  45.7662141  35.9633107
  21.5372361  43.8506847  36.2614259  20.9740727  44.6170557  36.1305723
  23.3261383  42.0611371  37.8429855  23.3771878  40.8751766  37.5124077
  22.8100975  42.4176985  39.0364979  22.9617435  43.3649239  39.3525151
  22.1265988  41.4908312  39.9321349  22.6846335  40.5554646  39.8898762
  22.0913244  41.9726901  41.3798053  21.4900033  41.2894719  41.9795771
  23.5202787  42.0120897  41.9300546  24.1221239  42.6955042  41.3310333
  23.5025509  42.3556112  42.9643552  23.9544635  41.0132298  41.8868917
  21.5889686  43.2940452  41.4930859  21.5839843  43.5564078  42.4165259
  20.7143914  41.1799553  39.4735923  20.1514457  40.1454658  39.8374931
  20.1047942  41.9942344  38.5920251  20.6017588  42.8090307  38.2615218
  18.7473251  41.7734139  38.1152967  18.1262510  41.4766094  38.9604435
  18.1219688  43.0393926  37.4585407  18.8490423  43.3752616  36.7191791
  17.2222619  42.6918266  36.9507756  17.7600572  44.2210128  38.4033341
  17.1988878  44.9230124  37.7865795  17.1164907  43.8397617  39.1961593
  18.9318322  44.9605739  39.0401777  18.9107241  45.2804427  40.2415221
  19.9728602  45.2927327  38.2617098  20.7610917  45.7829096  38.6598544
  19.9635674  45.0510884  37.2810860  18.6903600  40.6417896  37.0929036
  17.6212580  40.1137190  36.7919812  19.8431825  40.2435560  36.5246331
  20.6834895  40.7731760  36.7076253  19.9267578  39.1147819  35.6257766
  18.9931608  39.0067770  35.0736618  21.0818737  39.3291599  34.6102672
  20.8508636  40.2572704  34.0874436  22.0542827  39.4179637  35.0946581
  21.2237859  38.2484495  33.5401603  20.5526135  38.1243267  32.3548556
  19.8508486  38.9194728  32.1031247  20.9310096  36.9653098  31.7108384
  20.5796598  36.6404486  30.8213902  21.8595426  36.3196086  32.4828362
  22.5419044  35.1317907  32.2855340  22.3467127  34.5906825  31.3596827
  23.4318552  34.6976620  33.2716171  24.0027580  33.7793883  33.1339823
  23.6042556  35.4343346  34.4507357  24.2611578  35.0797784  35.2450082
  22.9359893  36.6506340  34.6436653  23.1008518  37.1999107  35.5706045
  22.0657514  37.0863356  33.6490427  20.1409513  37.8120778  36.3894456
  20.9155639  37.7474560  37.3426844  19.4987004  36.7049480  35.9549961
  18.8440914  36.7851167  35.1900390  19.7122796  35.3865801  36.5490148
  19.1326150  34.6808525  35.9540048  20.7742250  35.1660637  36.4406459
  19.3259588  35.2390990  37.9992584  18.3151402  35.7674268  38.4499517
  20.1146438  34.4712531  38.7748940  20.8941883  33.9887155  38.3511402
  19.8747759  34.2783819  40.1932428  18.8300071  34.4949841  40.4160449
  20.1835539  32.8112890  40.6273863  21.2365217  32.6316030  40.4104277
  20.0207715  32.7584805  41.7038681  19.3173821  31.7320011  39.9191117
  18.2994214  32.0088351  40.1933738  19.4436315  31.8354043  38.8413974
  19.5772172  30.2838121  40.3247905  20.7371556  29.8894057  40.6055405
  18.5926417  29.4974896  40.2964893  20.7561967  35.2597249  40.9603668
  21.8693355  34.9202823  41.3760047  20.3083116  36.5265093  41.1083029
  19.4552947  36.7414920  40.6120732  21.0513398  37.6267315  41.7169712
  20.5668467  38.5658947  41.4498792  21.1129279  37.5230201  43.2635260
  21.5818494  36.5672728  43.4975323  21.7523878  38.3351981  43.6092978
  19.7359750  37.6109348  43.9739151  19.0837228  36.8810420  43.4944108
  19.8640030  37.3484461  45.0240616  19.1081294  39.0014926  43.8692776
  19.8549209  40.0060011  44.0118399  17.8683010  39.0567355  43.6681189
  22.4161354  37.8894791  41.0660558  23.4301123  38.1631658  41.7188930
  22.4736944  37.8194910  39.7185197  21.5949136  37.6663063  39.2448341
  23.6820490  37.9454295  38.9107941  23.3769769  38.3714109  37.9549855
  24.3339052  38.6482198  39.4297051  24.4379058  36.6718529  38.6593816
  25.4271945  36.6652319  37.9211045  23.9939409  35.5417142  39.2311400
  23.1886478  35.5847424  39.8392116  24.6477974  34.2637462  39.0479234
  25.6214572  34.4247617  38.5851492  24.8553770  33.5208801  40.3936060
  23.9010897  33.4823537  40.9189160  25.1952889  32.5066916  40.1838878
  25.8716238  34.2223842  41.2517969  27.2081898  33.8066806  41.2295301
  27.4826121  32.9356456  40.6344757  28.1866227  34.4931264  41.9578428
  29.2307859  34.1901183  41.8803108  27.8335951  35.5792207  42.7570654
  28.8165278  36.2615850  43.4954821  29.6963062  35.8964439  43.3760601
  26.4951327  35.9635597  42.8408436  26.2067158  36.7872483  43.4938776
  25.5222683  35.2929589  42.0875525  24.4785885  35.6017085  42.1467667
  23.8504254  33.3736512  38.1094062  22.6399876  33.5305726  37.9334597
  24.5287707  32.3997605  37.4710179  25.5376768  32.4282117  37.5084120
  23.8975063  31.3854170  36.6401230  22.8326259  31.3004459  36.8567072
  24.0979395  31.6025002  35.1281758  23.4913683  32.4517290  34.8135614
  25.5771947  31.8790757  34.8002369  26.1843780  31.0300294  35.1141629
  25.6900422  32.0285345  33.7264453  25.9055204  32.7746723  35.3276912
  23.5565352  30.4449825  34.2455477  24.2098244  29.5901806  34.4205556
  22.5555662  30.2177138  34.6123030  23.4946742  30.7413830  32.7418157
  24.4954147  30.9683034  32.3742217  23.1034294  29.8709322  32.2151830
  22.8411578  31.5958386  32.5659694  24.3673929  30.0127937  37.0673008
  25.5328053  29.8198522  37.4240242  23.4563968  29.0146338  37.0588226
  22.4807660  29.2546703  36.9557382  23.8036647  27.6257545  37.2425761
  24.8610308  27.5542590  37.4974576  22.9778495  26.9664493  38.3709351
  21.9220594  27.1354897  38.1591993  23.1835841  25.8961159  38.3583040
  23.3214736  27.5397719  39.7625229  24.3977481  27.4273583  39.8932792
  23.0676030  28.5995310  39.7388066  22.5944658  26.8681836  40.9265358
  22.6422974  25.7820527  40.8482373  23.0090357  27.1814739  41.8847009
  21.1700837  27.2878423  40.8639161  20.9986292  28.2154031  40.5028986
  20.1235001  26.5376573  41.2153136  20.2948694  25.2898289  41.6405734
  21.2259906  24.9029639  41.6993006  19.4931578  24.7343994  41.9029781
  18.9043189  27.0599817  41.1642400  18.7798828  28.0154800  40.8615211
  18.1066697  26.4995270  41.4283327  23.6011282  26.8739213  35.9405106
  22.5505625  26.9386163  35.3016027  24.6352648  26.1363958  35.5004303
  25.4966314  26.1773010  36.0262380  24.6029444  25.3301282  34.2955415
  23.5924350  25.2774280  33.8903347  25.5754653  25.7789463  33.1907128
  25.4935781  25.1187214  32.3272906  25.2002214  27.2184044  32.7751057
  25.2823252  27.8793450  33.6379598  25.8770124  27.5589938  31.9914900
  24.1761339  27.2341695  32.4021506  27.0725130  25.6513647  33.5858828
  27.2361631  26.3149254  34.4350038  27.2339409  24.6189140  33.8958605
  28.0553201  26.0073663  32.4619415  27.8947972  27.0398894  32.1517348
  29.0775191  25.8915040  32.8221974  27.8925733  25.3438789  31.6125901
  24.9082321  23.9173626  34.7180504  25.5788749  23.7025702  35.7324451
  24.3999086  22.9088841  33.9804568  23.7046321  23.1236109  33.2800409
  24.7098942  21.5131305  34.2380125  24.4201002  21.3589160  35.2774049
  23.8709289  20.5706126  33.3465255  24.1562019  20.7069180  32.3033859
  24.0511489  19.5363885  33.6397856  22.8126938  20.8026276  33.4665542
  26.1974619  21.1803261  34.1280461  26.9224053  21.7386785  33.3065787
  26.6760055  20.2640552  34.9880814  26.0185528  19.8135566  35.6084896
  28.0750429  19.9044307  35.0917808  28.6865187  20.5535369  34.4649972
  28.5247216  20.0723720  36.5659306  28.4846386  21.1422803  36.7703539
  27.7740586  19.5597000  37.1674059  29.9203201  19.5350071  36.9217085
  29.9009711  18.4475727  36.8495085  30.6376286  19.9335485  36.2042579
  30.3361481  19.9470457  38.3453444  30.3455104  21.0368702  38.3624834
  29.5575239  19.5803432  39.0142039  31.6987339  19.4171176  38.8084947
  32.4506852  19.6634432  38.0588325  31.9618958  19.8891414  39.7550878
  31.6443094  17.9564656  38.9871613  31.4008941  17.5188570  38.1100368
  32.5468133  17.6207249  39.2918988  30.9478933  17.7280286  39.6820860
  28.2766883  18.4707582  34.6341572  27.5045797  17.5780265  34.9821017
  29.3370351  18.2131111  33.8375565  29.9097017  18.9933349  33.5487604
  29.7010207  16.8773639  33.3722310  30.7677877  16.7554535  33.5599681
  29.1420190  16.1660413  33.9802085  29.4256808  16.6029218  31.9221136
  29.6577320  15.4907314  31.4486850  28.9379491  17.5939661  31.1586263
  28.6627278  18.4610738  31.5973481  28.6694530  17.4235409  29.7355026
  29.2160831  16.5484825  29.3839809  27.1590717  17.2280777  29.4154006
  27.0668770  17.0938216  28.3376369  26.8307809  16.3212778  29.9233762
  26.3439027  18.3283814  29.8300815  25.4275149  18.1497697  29.6066286
  29.2364738  18.5366638  28.8849293  28.8232181  18.7262679  27.7387072
  30.2121721  19.3039686  29.4068240  30.4148991  19.1403926  30.3826539
  30.8480674  20.4340638  28.7511564  31.4149739  21.0010379  29.4895714
  31.8181652  19.9814045  27.6189661  32.3585250  19.0799377  27.9078748
  31.2017570  19.7705396  26.7450800  32.8332499  21.0622552  27.2510751
  33.1196092  21.9576971  28.0620487  33.4356822  20.9701705  26.0471424
  34.1123505  21.6668314  25.7698640  33.2071979  20.2050015  25.4287476
  29.8558703  21.5008044  28.2896207  29.9453662  22.0428598  27.1856821
  28.8678961  21.8374365  29.1474551  28.7959852  21.3375420  30.0221171
  27.8736864  22.8472862  28.8501946  27.3723739  22.5947845  27.9158350
  26.8126478  22.9451942  29.9689551  27.3457215  23.0877366  30.9089623
  26.2029496  23.8243934  29.7606836  25.9044248  21.7042906  30.0767431
  26.5247254  20.8097281  30.1322947  25.3013006  21.7843179  30.9811428
  24.9690232  21.5758524  28.8760356  24.0404576  22.3662122  28.7001879
  25.2073503  20.5589315  28.0140129  24.6137393  20.4361779  27.2061398
  25.9776305  19.9278580  28.1828801  28.4924577  24.2112617  28.6402498
  29.3125422  24.6722394  29.4308433  28.1446982  24.8621265  27.5165838
  27.5558217  24.3587356  26.8685704  28.6358712  26.1657808  27.1265112
  28.1937245  26.4240826  26.1642816  28.2941196  27.2885979  28.1482316
  29.0647935  27.3268717  28.9180992  28.2482396  28.2479253  27.6327843
  26.6461259  27.2261603  28.9369029  30.1357791  26.1803112  26.8392026
  30.7503180  27.2428902  26.8225354  30.7707480  25.0009071  26.6333495
  30.2019249  24.1692400  26.7031321  32.2118638  24.8419681  26.4875219
  32.4432274  23.7772805  26.4557365  32.7617986  25.5055173  25.2041501
  32.5858485  26.5707823  25.3536533  33.8342005  25.3197732  25.1445407
  32.0906465  25.0542408  23.8972747  31.0148691  25.2175349  23.9616083
  32.6620744  25.8699121  22.7322874  33.7378164  25.7067588  22.6670266
  32.1902085  25.5548869  21.8015874  32.4651662  26.9290078  22.8985519
  32.2637822  23.5496715  23.6310507  31.8187478  22.9819974  24.4482349
  31.7701901  23.2865431  22.6955126  33.3253091  23.3124547  23.5604261
  32.9987136  25.2735380  27.7229363  34.1175368  25.7808878  27.6429933
  32.4447814  25.0426600  28.9278182  31.5313357  24.6119500  28.9421438
  33.0005644  25.5273386  30.1862450  33.3390848  26.5634337  30.1830935
  31.9919679  25.3452257  31.3253061  31.0423536  25.7784648  31.0112426
  31.7849737  23.8585148  31.6847085  32.7341306  23.4246786  31.9993328
  31.0622350  23.7776733  32.4966284  31.4121696  23.3217855  30.8123323
  32.3596451  26.2059736  32.5536820  32.3714242  27.2583865  32.2701499
  31.6218937  26.0505321  33.3408671  33.3454981  25.9173879  32.9182544
  34.3806693  24.9836254  30.5664493  35.1601304  25.6430856  31.2576676
  34.7530933  23.7660582  30.1184811  34.1117521  23.2274222  29.5539883
  36.0150719  23.1551094  30.5002812  36.2721477  23.4561787  31.5158443
  35.9247784  21.6011020  30.4496724  36.7048452  21.2235144  31.1107492
  34.9475836  21.3340437  30.8520035  36.0912569  20.9789329  29.0532615
  35.4026427  21.4939435  28.3834292  37.1164118  21.1662218  28.7337582
  35.8106329  19.4690463  29.0135919  36.3914632  18.9936738  29.8040070
  34.7480530  19.3149460  29.2014123  36.1848931  18.8509559  27.6633669
  35.5348099  19.2574537  26.8886076  37.2218180  19.0937723  27.4311469
  36.0240745  17.3835717  27.7207241  35.0632096  17.1583531  27.9354680
  36.2723812  16.9825305  26.8276341  36.6266886  17.0066569  28.4382829
  37.2036442  23.6298683  29.6708538  38.3535297  23.3405564  30.0002154
  36.9729511  24.3336317  28.5498726  36.0168093  24.5749396  28.3315545
  37.9822206  24.5213635  27.5225388  38.6048099  23.6306152  27.4385781
  37.2980551  24.7739617  26.1644381  36.8477343  25.7665858  26.1616300
  38.0369223  24.7084957  25.3657583  36.1958254  23.7057255  25.9376825
  36.4532971  22.9111388  26.6379975  35.2414325  24.1471444  26.2247065
  36.0857591  23.1293332  24.5366435  36.3495127  23.8460740  23.5458122
  35.6727085  21.9362550  24.4843002  39.1284687  25.4732423  27.8472757
  40.2768810  25.1996123  27.4856946  38.8644387  26.5726977  28.5714855
  37.9298780  26.6658190  28.9430016  39.8175879  27.6365774  28.8313022
  40.8278068  27.2579477  28.6757500  39.5934558  28.8514381  27.8926738
  38.5434719  29.1290185  27.9853136  40.2174577  29.6601646  28.2730462
  39.9304187  28.5969741  26.4020078  39.3925217  27.6859396  26.1397413
  39.5669005  29.4220331  25.7894465  41.4219256  28.3965703  26.1512736
  42.2349702  28.8915990  26.9731075  41.7459497  27.7945904  25.0955631
  39.6747285  28.0743517  30.2791885  39.1673789  29.1587540  30.5813378
  40.0796125  27.2035379  31.2239404  40.4252689  26.3067977  30.9133313
  40.0250266  27.4624450  32.6468608  39.3443803  28.2917714  32.8393122
  39.5002600  26.2119462  33.3851201  40.1763480  25.3752123  33.2093891
  39.4464472  26.4165304  34.4543955  38.5070122  25.9600795  33.0134735
  41.3923604  27.8368864  33.2051019  42.3891959  27.1616449  32.9583150
  41.4848558  28.9178907  34.0004107  40.6739215  29.4939829  34.1753473
  42.7709060  29.3630667  34.5142602  43.3339821  28.4853016  34.8313925
  43.6188194  30.1480738  33.4736491  44.5870646  30.3607674  33.9268179
  43.7582471  29.5041729  32.6052877  43.0065816  31.3697826  33.0657306
  43.5696012  31.8118698  32.4260684  42.6307087  30.1580605  35.7919197
  41.5400925  30.5473315  36.2089154  43.7485813  30.3549753  36.5149407
  44.6326982  29.9723369  36.2115852  43.7141517  31.1073114  37.7530082
  42.9528035  31.8838885  37.6796853  43.3814546  30.2003916  38.9651374
  42.5357191  29.5697629  38.6910238  44.2510081  29.5743495  39.1652571
  43.0555576  30.9509834  40.1366408  42.8578096  30.3488697  40.8577196
  45.0443655  31.7721620  38.0148684  46.0977521  31.1837413  37.7703469
  45.0333825  33.0132147  38.5366124  44.1488589  33.4988176  38.4929415
  46.1676216  33.7044470  39.1092892  46.9559287  33.7395119  38.3573307
  45.7933092  35.1466331  39.4973092  45.0112525  35.1278795  40.2563451
  46.6714728  35.6563539  39.8936847  45.4318318  35.6781076  38.6169865
  46.7135182  32.9976496  40.3385688  45.9857376  32.3253556  41.0659870
  48.0205129  33.1439851  40.6026230  48.6007023  33.6168645  39.9244898
  48.6495385  32.6139187  41.7926375  47.9371365  32.0294692  42.3748757
  49.8416077  31.7258685  41.4467732  50.5175202  32.2942960  40.8079212
  50.5972576  31.2604224  42.7091305  49.9220694  30.6914905  43.3483005
  51.4382184  30.6308612  42.4183763  50.9660089  32.1296747  43.2536713
  49.3466129  30.4960464  40.6542130  48.8589555  30.8264132  39.7370706
  50.1947645  29.8584594  40.4047708  48.6362962  29.9341374  41.2606858
  49.0721504  33.7895760  42.6540445  49.7391316  34.7209031  42.1918475
  48.6753502  33.7774392  43.9382727  48.0180845  33.0583965  44.2048787
  49.1099246  34.7169339  44.9472707  49.6184965  35.5633097  44.4856413
  47.9393519  35.2446626  45.7799290  47.4066320  34.3917260  46.2004142
  48.4151966  36.1648565  46.9195189  48.9476412  37.0183226  46.4997578
  47.5534835  36.5177420  47.4861078  49.0817286  35.6107032  47.5803901
  46.9644912  36.0132306  44.8660035  46.5874480  35.3445687  44.0921613
  46.1304195  36.3894500  45.4583573  47.4853120  36.8498934  44.4003406
  50.0838199  33.9430478  45.8088055  49.8282479  32.7695467  46.1240629
  51.2367347  34.5381720  46.1422430  51.4147776  35.4532929  45.7537153
  52.2399703  33.9543345  47.0212613  52.1159051  32.8741483  46.9444181
  53.2406933  34.2292172  46.6879562  52.0692384  34.3736613  48.4880635
  51.1981887  35.2325881  48.7873731  52.8637330  33.8595086  49.3191521
  64.4485854  23.8214964  20.4510565   5.2308535  59.9372305  44.2591600
  34.2618684  57.1107358  55.1385186  17.5055781  32.8041634  63.4526462
  42.5548374  47.0446215  68.5034337  14.8420659  59.1509001  31.7277374
  63.7245122  29.7826785  54.2331254  51.4483411  42.4828550  61.4592361
  70.5327791  25.4253366  36.7810570  21.1873603  43.4123683   4.8710725
  23.5523065  43.7988949  67.5757858  15.5942766  29.3313876  18.1271694
  62.5339391  12.7037787  56.8535869  35.4179191  36.8930306  78.2558165
  35.7071716  37.6695188  78.5301739  35.5050990  36.3819037  78.9572664
  35.4733447  36.9322224  78.4000663  37.6573841  20.9319145  67.3422542
  37.3225210  21.6096066  66.9066764  38.1700712  20.5424456  66.7539414
  37.6839422  20.9743723  67.1909333  42.4424631  14.4607708  69.6665143
  42.3264157  15.2115394  70.0957281  43.2380518  14.2031662  69.9161230
  42.5429221  14.5342555  69.7669234  40.1653937  15.1915353  67.9779432
  40.0805232  16.0476319  68.1229001  40.6538320  14.9159677  68.6461592
  40.2242834  15.2772674  68.0981514  37.8305892  18.0696857  66.1875488
  38.2457041  17.7381881  65.4959984  36.9997822  17.8365759  66.0595625
  37.7693901  17.9868113  66.0666336  40.5239282  14.3207416  65.3736690
  40.4419445  14.3909603  66.2391677  41.1619003  14.8837160  65.1820430
  40.6059120  14.4146387  65.4726639  34.4213358  21.2556554  69.9224868
  34.7111657  20.8645535  69.1984095  35.1516839  21.4373259  70.3630143
  34.5720243  21.2250367  69.8807675  34.5287230  24.6053326  71.7715710
  35.1811288  24.0729768  72.0006736  33.8312838  24.2521978  72.1583584
  34.5217948  24.4742849  71.8627878  42.5227148  16.9257740  71.1146689
  43.0885181  17.5850950  71.0305232  41.8755051  17.2707438  71.5863092
  42.5105904  17.0739681  71.1719446  38.9933726  19.8696524  70.5383769
  38.7520402  19.1364385  70.1310834  39.1735059  20.4183381  69.8850102
  38.9841350  19.8418915  70.3813992  43.7189846  16.9763968  67.9072326
  43.3396655  16.1901106  67.9001615  43.0556091  17.5250825  67.7643970
  43.5648321  16.9408792  67.8853123  39.0655415  17.5589671  63.7261101
  39.8328400  17.6189796  63.3166953  38.6186724  16.9870112  63.2417420
  39.1128842  17.4826246  63.5938812  41.9649945  19.2209459  68.2424012
  42.0469782  20.0276445  67.9185463  42.4499687  19.2405418  68.9664785
  42.0487103  19.3430121  68.3010910  35.7694487  19.1621581  68.4955453
  35.8387308  18.3036120  68.6348454  36.5482942  19.3793462  68.1674478
  35.8947337  19.0674445  68.4672611  40.1601975  21.5859283  72.7091947
  39.7681767  21.2825998  71.9914813  40.3155047  22.4228373  72.5196901
  40.1255565  21.6643119  72.5748444  35.1130015  13.8308437  65.1898212
  35.4022540  14.6073319  65.4641786  35.2001814  13.3197168  65.8912711
  35.1684271  13.8700355  65.3340710  39.4598717  17.7945264  68.5761556
  40.1832915  18.2603377  68.4326129  39.0199308  17.8618873  67.8259153
  39.5014409  17.8729100  68.4446337  39.7202566  21.8565968  68.7359617
  39.0031876  21.6826831  68.2706854  40.3709304  21.6218541  68.2035103
  39.7104417  21.7961761  68.5888835  46.1022865  16.8269779  69.3016472
  46.4856471  17.5761135  69.5314569  45.3066978  17.0735599  69.0428461
  46.0416647  16.9739473  69.2974045  55.5940640  27.4040714  71.3946833
  55.5634645  28.2585351  71.5665102  56.1921989  27.1036007  71.9532976
  55.6777798  27.4857211  71.5021635  48.7940325  26.4916365  76.1499763
  47.9378221  26.6524863  76.2008880  48.8407979  25.6208429  76.1704824
  48.6739437  26.3867167  76.1605829  43.1781465  36.0279083  71.9136995
  42.4264364  35.6494621  71.6853040  43.6267477  36.0597517  71.1655805
  43.1331132  35.9764690  71.7694497  48.6306425  36.4504453  67.3422542
  48.2957793  37.1281374  66.9066764  49.1433295  36.0609764  66.7539414
  48.6572006  36.4929031  67.1909333  48.1710716  38.4018721  73.2833653
  48.5550095  38.9705620  72.7438429  48.1069857  37.6768232  72.8039470
  48.2184143  38.3794185  73.1327516  44.7566221  36.0397475  74.1799767
  44.8576584  35.2297829  74.4896895  44.1607966  35.9454422  73.5499446
  44.6838760  35.9062503  74.1326006  53.4157215  29.9793016  69.6665143
  53.2996741  30.7300702  70.0957281  54.2113102  29.7216969  69.9161230
  53.5161804  30.0527863  69.7669234  37.9531265  32.0617762  73.8052101
  37.7181450  31.2285414  73.6984370  38.0916906  32.3422427  72.9913302
  37.9386928  31.9801265  73.6694456  45.2987540  33.9687039  70.9534485
  45.6203381  34.5092247  70.3495793  45.9459637  33.3983811  71.0856775
  45.4413596  33.9646214  70.8841520  47.3489248  25.9703034  71.0368872
  48.0469413  26.1491162  71.5290335  47.6641581  25.4473373  70.4139261
  47.4984586  25.9196806  71.0170882  47.5377184  32.3573479  71.0248663
  47.9770819  31.7490580  71.4703436  47.3881847  31.9780853  70.2534128
  47.5798650  32.2111950  70.9767831  45.0048827  30.9517491  78.2267489
  45.6497829  30.4589934  77.9078437  45.2450604  31.0942278  79.0533567
  45.1359412  30.8994933  78.3017022  51.1386520  30.7100660  67.9779432
  51.0537816  31.5661627  68.1229001  51.6270904  30.4344985  68.6461592
  51.1975418  30.7957982  68.0981514  52.0704954  27.3285455  69.4777168
  51.5416425  27.5445088  70.1374474  52.5929974  28.0221593  69.3978137
  52.0693407  27.4628592  69.5632767  43.9604561  31.2248671  68.2784636
  43.3761777  31.7298703  68.6850499  43.5574657  30.9991058  67.5381228
  43.8143865  31.2656920  68.2289661  39.5148590  36.9403433  75.0808307
  39.0316168  37.6653922  75.0567891  40.3271908  37.2379563  75.1918465
  39.5639338  37.0905786  75.0935586  48.4181776  27.4714323  66.7553556
  48.6577780  27.6792307  65.9428899  48.7397617  26.6671832  66.8642501
  48.5018934  27.3828425  66.6514109  43.7272066  19.4007719  70.6013094
  44.4818034  19.7686036  70.3630144  43.5499601  19.7747274  71.3692274
  43.8126545  19.5105907  70.6797983  42.3692787  37.4559608  75.2328587
  43.0713367  36.9411598  75.2901344  42.2890270  37.7833760  76.0375462
  42.4616548  37.4273835  75.3601379  42.0829131  21.8078038  67.2991207
  41.9004704  22.0249919  66.4732200  42.9454744  21.9217051  67.3549822
  42.1833720  21.8567936  67.1845694  41.6943563  33.6465960  74.7414195
  42.5332462  33.8788893  74.7887957  41.7255332  32.7770272  74.6721230
  41.8225280  33.5522907  74.7378840  47.7628850  18.8104449  70.3340231
  48.4915010  18.6320404  69.8878387  47.8523743  19.6522529  70.5447409
  47.8835512  18.9088327  70.2993749  51.7437151  29.7457836  74.2372525
  52.4994666  30.1789351  74.2761434  51.8499475  29.0962606  74.8107161
  51.8707321  29.7135320  74.3270550  41.6291158  25.0852211  65.8113680
  40.9149335  24.7990390  66.2236113  42.1135126  25.4248837  66.4520068
  41.5950521  25.0933861  65.9669315  48.8038476  33.5882165  66.1875488
  49.2189624  33.2567189  65.4959984  47.9730405  33.3551067  66.0595625
  48.7426484  33.5053421  66.0666336  38.1326824  31.0725906  76.4773666
  37.9502398  31.0472792  75.6245959  38.8676493  31.5424844  76.5162575
  38.2140888  31.1387268  76.3571585  54.2026499  31.3077416  73.6206554
  54.4382088  31.4522615  72.7933405  54.3516062  32.0719824  74.0138068
  54.2592302  31.4416470  73.5570158  56.0316955  30.1479082  71.4576158
  56.3625173  30.6806722  70.8516253  56.6050044  30.2017970  72.1138109
  56.1650635  30.2348651  71.4653939  51.2448845  27.9943984  72.1399738
  51.3395699  28.7333279  72.5939363  50.6207688  27.5661460  72.5734302
  51.1657875  28.0405305  72.2707885  51.4971866  29.8392724  65.3736690
  51.4152028  29.9094911  66.2391677  52.1351586  30.4022468  65.1820430
  51.5791703  29.9331695  65.4726639  44.8565037  29.6053462  74.8411216
  44.5984281  28.7725197  74.8142516  44.9113520  29.8311075  74.0003716
  44.8264815  29.5151233  74.7131353  49.9366087  21.7081913  74.9415309
  49.2322414  21.2191098  75.0999228  49.9851061  21.7204387  74.0703753
  49.8396139  21.6371561  74.8354649  43.8299749  27.1591225  75.3276111
  43.2549340  27.3183393  75.9640072  43.4535425  26.5226634  74.8644561
  43.6902561  27.0889038  75.3530669  48.6011976  29.8613179  68.3845296
  49.4152615  30.1528071  68.2728068  48.5371117  29.2073041  67.8103589
  48.7114715  29.8078373  68.2834134  44.4719884  33.3334696  73.5117608
  45.1093831  33.0946444  74.0569402  44.8974956  33.5371855  72.7770769
  44.6296051  33.3285706  73.4834766  39.1632527  35.5723032  77.3951912
  39.2036672  35.8437884  76.5671692  39.7227051  36.0964941  77.8109700
  39.2515873  35.6898788  77.3343800  45.1122699  28.5536986  67.8492498
  45.4967852  28.3344692  68.6009043  44.8634320  29.3799931  67.9793574
  45.1324772  28.6435132  67.9793574  46.8541356  33.8107119  75.1911395
  46.9280365  33.6482290  76.0453245  47.6710863  33.9997308  74.9471876
  46.9857715  33.8143861  75.2809420  40.6147113  34.1564981  72.2205838
  39.7885231  34.4026719  72.0940117  40.6759104  34.0777062  73.0867896
  40.5021280  34.1809930  72.3294783  42.8323137  20.2233922  73.1801278
  41.9645562  20.2956522  73.2458887  43.1198341  21.0256001  73.3689253
  42.7462885  20.3528070  73.2176045  45.3945942  36.7741862  69.9224868
  45.6844240  36.3830843  69.1984095  46.1249423  36.9558567  70.3630143
  45.5452826  36.7435675  69.8807675  43.3351858  38.7509244  72.9885018
  43.1152153  38.4606599  73.7811685  43.1146380  38.0924199  72.4602930
  43.2699452  38.6108952  73.0273926  42.2468805  30.8382561  75.2540719
  41.9582053  30.2120032  75.7886447  43.1152153  30.7802848  75.3205400
  42.3329057  30.7370105  75.3431674  45.5019813  40.1238634  71.7715710
  46.1543871  39.5915076  72.0006736  44.8045422  39.7707286  72.1583584
  45.4950531  39.9928157  71.8627878  42.4501078  32.4777812  71.1783084
  43.2047046  32.8590851  71.3918547  41.8571691  32.9288955  71.6329781
  42.4737792  32.6006639  71.2765963  53.4959732  32.4443048  71.1146689
  54.0617764  33.1036258  71.0305232  52.8487635  32.7892746  71.5863092
  53.4838488  32.5924989  71.1719446  43.7699305  33.6486373  76.5523200
  43.2480058  33.7886665  77.2375065  44.1573325  32.8897037  76.7425317
  43.7503006  33.5571897  76.6824276  40.7590489  23.6992182  70.6218155
  40.4715285  23.3293452  69.8850102  41.4460957  24.1687037  70.3601859
  40.8179386  23.7139151  70.4733230  49.9666310  35.3881832  70.5383769
  49.7252986  34.6549693  70.1310834  50.1467643  35.9368689  69.8850102
  49.9573934  35.3604223  70.3813992  45.1965630  30.6790392  71.9504691
  45.0008413  31.2865127  71.3564994  45.4199976  29.9858336  71.4696365
  45.2000271  30.6667918  71.7920772  43.5944160  27.5645130  72.0685559
  44.3166812  27.7286288  71.6089365  43.1152153  28.2854795  71.9624899
  43.6307891  27.6943360  71.9851173  50.0006946  20.7994306  72.1809860
  50.7033299  20.6002054  71.7029818  49.7351135  20.0270248  72.4878704
  50.0653579  20.6557272  72.1555302  38.3318683  24.4773394  71.4703436
  38.4334820  25.2799556  71.7984411  39.1274570  24.2760730  71.1726516
  38.4646589  24.5659293  71.4738791  49.3021008  26.4287663  73.3569045
  49.0555722  26.3483414  74.1905834  49.6306131  25.6441130  73.1631573
  49.3142251  26.3013928  73.4516569  54.6922429  32.4949276  67.9072326
  54.3129238  31.7086414  67.9001615  54.0288675  33.0436133  67.7643970
  54.5380904  32.4594100  67.8853123  47.5169338  36.0462795  71.7461152
  48.2819229  35.7772438  71.4243816  47.4147428  35.5612805  72.4631215
  47.6150833  35.9352359  71.8040980  50.0387998  33.0774979  63.7261101
  50.8060983  33.1375103  63.3166953  49.5919307  32.5055420  63.2417420
  50.0861425  33.0011554  63.5938812  50.9365794  31.8829634  76.0113834
  50.2610796  31.6514867  76.5127221  50.9458170  31.2750817  75.3855939
  50.8384298  31.7588560  75.9929986  52.9382528  34.7394767  68.2424012
  53.0202366  35.5461753  67.9185463  53.4232270  34.7590726  68.9664785
  53.0219686  34.8615429  68.3010910  46.7479032  29.4179603  76.9094090
  46.3241281  29.6184102  76.1733108  46.5723887  28.5708451  77.0218389
  46.6589912  29.3228384  76.8167780  42.0361477  29.9131654  72.3422062
  42.1926096  29.8478457  73.1978054  42.3762070  30.6880207  72.1300742
  42.1094711  30.0180852  72.4376656  48.5740621  29.2889538  71.2115425
  49.1156167  28.7859919  71.6754046  48.8887180  29.2354732  70.4004911
  48.7005018  29.2068959  71.1599237  46.7427071  34.6806889  68.4955453
  46.8119891  33.8221428  68.6348454  47.5215526  34.8978770  68.1674478
  46.8679921  34.5859753  68.4672611  51.1334558  37.1044591  72.7091947
  50.7414350  36.8011306  71.9914813  51.2887631  37.9413680  72.5196901
  51.0988148  37.1828427  72.5748444  38.6095738  27.0966605  72.6582829
  38.9894703  27.5151150  71.9943097  38.0351103  27.6780060  72.9651673
  38.5807063  27.2444463  72.6059570  51.2974233  33.6694579  72.6497977
  50.9388888  33.8409222  73.4262010  50.8112944  34.1307785  72.0925976
  51.1732930  33.7633550  72.6823246  46.0862599  29.3493745  65.1898212
  46.3755123  30.1258627  65.4641786  46.1734397  28.8382476  65.8912711
  46.1416855  29.3885663  65.3340710  42.2526540  28.6627009  77.2898324
  41.4114546  28.5630883  77.4977218  42.4616548  29.4322490  77.6412644
  42.1591232  28.7619053  77.3725639  39.7302107  26.2846546  75.1183074
  39.3358804  26.3589558  74.3433184  39.1742223  26.6704493  75.6691436
  39.5904919  26.3528321  75.0850734  46.0643204  26.5908409  76.5395921
  45.7606342  26.0364397  77.1406329  45.3622625  26.7700618  76.0523956
  45.9159414  26.5353191  76.5565627  45.1209302  23.9008928  71.1040623
  45.3969036  23.1827841  70.6918191  45.7207971  24.4993848  70.8961729
  45.2502566  23.8829299  71.0121384  48.6219822  21.5722446  69.3787218
  49.0763569  21.7433006  70.1035063  49.0959868  20.9590556  68.9784994
  48.7588142  21.5073331  69.4260980  42.1435347  31.0570772  78.7089957
  41.5523281  31.6980270  78.6792972  42.9056371  31.4808389  78.6821256
  42.1683608  31.2146610  78.7005104  45.9632842  28.2764980  70.4832225
  46.7074887  28.6639256  70.7215175  46.1093538  27.4322405  70.6472713
  46.0943427  28.2095453  70.5426195  48.9510718  23.8490453  76.3826145
  48.4770672  23.3232215  76.8931456  49.3228854  23.3019926  75.8141006
  48.9360607  23.6906450  76.3741292  50.8794218  24.7427008  69.4451899
  50.3517236  24.8255752  68.7557607  51.3389926  25.4844879  69.4416543
  50.8696068  24.8647670  69.3426594  42.8727283  23.0129528  64.4692794
  42.5240087  23.6649253  64.9324343  42.3923729  22.9986641  63.7416665
  42.7497527  23.1072581  64.4303885  50.4331300  33.3130571  68.5761556
  51.1565499  33.7788684  68.4326129  49.9931891  33.3804181  67.8259153
  50.4746992  33.3914408  68.4446337  48.8413752  31.2432384  77.5606543
  48.4141360  30.6182102  77.1271979  48.8338697  30.9607306  78.3865550
  48.7772894  31.1085164  77.6186371  43.2451191  25.6388058  69.9818838
  43.3854153  26.1360522  70.6847480  43.7433724  24.9374352  70.1233052
  43.3392272  25.6090037  70.1070417  43.2751414  26.5055169  67.3111415
  43.9096493  27.1015594  67.2460877  43.3577025  26.2058627  68.1257285
  43.3807965  26.5496077  67.4214502  44.8530397  22.4369144  67.2856857
  45.1746238  21.9572227  66.6316119  45.1157340  23.2468790  67.0947669
  44.9396422  22.4859042  67.1612349  39.7804402  28.7023010  70.5800961
  40.2896631  29.2987517  70.9612267  40.2538674  28.4348983  69.8977381
  39.9247777  28.7508825  70.5355484  50.6935150  37.3751276  68.7359617
  49.9764459  37.2012139  68.2706854  51.3441887  37.1403849  68.2035103
  50.6837000  37.3147069  68.5888835  48.6883775  18.2956438  73.0570913
  48.0452092  18.1454084  73.6256052  48.3483182  18.0498783  72.2920018
  48.5428852  18.2368561  73.0273928  53.2783121  26.2515865  72.4800922
  52.6074311  26.7945567  72.3513987  53.9722871  26.7210720  72.2382617
  53.2811988  26.4014136  72.4256449  42.1394933  25.3379268  73.4474141
  41.4206923  25.7543401  73.7147005  42.5107296  25.9033507  72.8965780
  42.0886865  25.4828550  73.4056948  47.9141508  24.3777268  68.7847521
  47.3206347  24.6994265  68.2332088  47.9516786  23.5318364  68.5768627
  47.8315897  24.3001596  68.6730292  50.7899324  24.3356773  72.2149271
  50.5613017  24.3589474  71.3727629  51.0497401  23.5114240  72.3344282
  50.7945512  24.2172853  72.1074469  43.8444087  22.8733319  73.5103467
  44.3201453  23.2350399  72.8753648  43.3432687  23.5289787  73.7903610
  43.8409446  23.0227508  73.4580208  57.0755448  32.3455087  69.3016472
  57.4589054  33.0946443  69.5314569  56.2799562  32.5920907  69.0428461
  57.0149231  32.4924781  69.2974045  45.8870740  25.0174519  66.8776851
  46.2669705  25.0354148  66.0927966  45.1463336  25.4628508  66.7567698
  45.8339578  25.0856293  66.7440419  53.5156031  23.3256710  72.4652430
  53.5150257  23.1705367  73.3236706  53.3112211  24.1719697  72.4093815
  53.4855808  23.4277331  72.5840369  51.2396883  28.0054212  76.1188636
  51.7350548  27.2877207  76.0792657  50.4296658  27.7025009  76.0043123
  51.1940776  27.8551858  76.0962362  46.6855494  31.8552025  68.2685641
  45.8766817  31.5318699  68.2218950  47.1930403  31.1485247  68.2013889
  46.6405161  31.7033341  68.2515935  37.3145771  29.2824218  73.9933005
  36.4491291  29.2709909  73.8815776  37.4144587  29.0954441  74.8404144
  37.2019938  29.2530279  74.1021950  49.8927301  34.4692164  75.1366923
  50.3638479  35.1832426  75.3056908  50.2287479  33.8690914  75.6726792
  50.0122416  34.4863628  75.2399299  45.8789911  21.2436047  69.5604482
  46.7005605  21.4134360  69.3186177  45.4159562  21.3983308  68.8370780
  45.9321073  21.2917780  69.4176127  40.2815801  32.9995225  77.2141719
  40.8860659  32.9591059  76.5855540  40.0743114  33.8466377  77.2445775
  40.3404699  33.1183228  77.1257836  59.3914359  42.9899631  66.7553556
  59.6310363  43.1977615  65.9428899  59.7130200  42.1857140  66.8642501
  59.4751517  42.9013733  66.6514109  54.7004650  34.9193027  70.6013094
  55.4550618  35.2871344  70.3630144  54.5232184  35.2932582  71.3692274
  54.7859128  35.0291215  70.6797983  53.0561714  37.3263346  67.2991207
  52.8737288  37.5435227  66.4732200  53.9187327  37.4402359  67.3549822
  53.1566304  37.3753244  67.1845694  58.7361434  34.3289757  70.3340231
  59.4647594  34.1505712  69.8878387  58.8256326  35.1707837  70.5447409
  58.8568096  34.4273635  70.2993749  52.6023741  40.6037519  65.8113680
  51.8881918  40.3175698  66.2236113  53.0867710  40.9434145  66.4520068
  52.5683105  40.6119168  65.9669315  51.7323072  39.2177490  70.6218155
  51.4447868  38.8478760  69.8850102  52.4193541  39.6872345  70.3601859
  51.7911970  39.2324459  70.4733230  49.3051267  39.9958702  71.4703436
  49.4067403  40.7984864  71.7984411  50.1007154  39.7946038  71.1726516
  49.4379173  40.0844601  71.4738791  57.0595182  44.8679053  65.1898212
  57.3487707  45.6443935  65.4641786  57.1466981  44.3567784  65.8912711
  57.1149438  44.9070971  65.3340710  59.5952406  37.0907754  69.3787218
  60.0496152  37.2618314  70.1035063  60.0692451  36.4775864  68.9784994
  59.7320726  37.0258639  69.4260980  53.8459866  38.5314835  64.4692794
  53.4972671  39.1834561  64.9324343  53.3656312  38.5171949  63.7416665
  53.7230110  38.6257889  64.4303885  54.2483997  42.0240477  67.3111415
  54.8829077  42.6200902  67.2460877  54.3309608  41.7243935  68.1257285
  54.3540548  42.0681385  67.4214502  55.8262980  37.9554452  67.2856857
  56.1478821  37.4757535  66.6316119  56.0889924  38.7654098  67.0947669
  55.9129006  38.0044350  67.1612349  58.8874091  39.8962576  68.7847521
  58.2938931  40.2179573  68.2332088  58.9249369  39.0503672  68.5768627
  58.8048481  39.8186904  68.6730292  56.8603324  40.5359827  66.8776851
  57.2402288  40.5539456  66.0927966  56.1195920  40.9813816  66.7567698
  56.8072161  40.6041601  66.7440419  56.8522494  36.7621355  69.5604482
  57.6738189  36.9319668  69.3186177  56.3892145  36.9168616  68.8370780
  56.9053657  36.8103088  69.4176127  34.1164182  -1.8065315  56.8564915
  34.4062481  -2.1976334  56.1324141  34.8467663  -1.6248610  57.2970190
  34.2671067  -1.8371501  56.8147722  42.8732289  12.9657214  58.8477042
  42.1215188  12.5872753  58.6193087  43.3218301  12.9975648  58.0995852
  42.8281956  12.9142821  58.7034544  48.3257249  13.3882584  54.2762589
  47.9908617  14.0659505  53.8406811  48.8384119  12.9987895  53.6879460
  48.3522830  13.4307162  54.1249380  47.8661540  15.3396852  60.2173700
  48.2500919  15.9083751  59.6778476  47.8020681  14.6146363  59.7379516
  47.9134967  15.3172316  60.0667563  44.4517045  12.9775606  61.1139814
  44.5527408  12.1675960  61.4236942  43.8558790  12.8832553  60.4839493
  44.3789584  12.8440634  61.0666053  53.1108039   6.9171147  56.6005189
  52.9947565   7.6678833  57.0297328  53.9063926   6.6595101  56.8501277
  53.2112628   6.9905994  56.7009281  44.2917785  17.8953196  62.5154670
  44.9355240  18.3366360  62.9050829  44.6174040  17.0906622  62.4284929
  44.4349613  17.8418390  62.5600147  37.6482089   8.9995893  60.7392148
  37.4132274   8.1663545  60.6324417  37.7867730   9.2800559  59.9253349
  37.6337752   8.9179396  60.6034503  44.9938364  10.9065170  57.8874532
  45.3154205  11.4470378  57.2835840  45.6410461  10.3361942  58.0196822
  45.1364420  10.9024346  57.8181567  47.0440072   2.9081165  57.9708919
  47.7420237   3.0869293  58.4630382  47.3592405   2.3851505  57.3479308
  47.1935410   2.8574937  57.9510929  47.2328008   9.2951610  57.9588710
  47.6721643   8.6868711  58.4043483  47.0832671   8.9158984  57.1874175
  47.2749473   9.1490081  57.9107877  44.6999651   7.8895622  65.1607536
  45.3448653   7.3968065  64.8418484  44.9401428   8.0320409  65.9873614
  44.8310236   7.8373064  65.2357069  47.2385742  10.7350528  64.8114428
  47.5208985   9.9401934  64.5901184  47.9671903  11.2131115  64.8319489
  47.3875306  10.6885125  64.7817443  50.8337344   7.6478792  54.9119479
  50.7488639   8.5039758  55.0569048  51.3221728   7.3723116  55.5801638
  50.8926242   7.7336113  55.0321561  51.7655778   4.2663586  56.4117214
  51.2367249   4.4823219  57.0714521  52.2880798   4.9599724  56.3318184
  51.7644231   4.4006723  56.4972814  57.2203830   9.8409890  61.7850259
  56.3901534  10.0520534  61.9483675  57.1713083   9.0146945  61.5092542
  57.0910566   9.7499497  61.7687624  43.6555385   8.1626803  55.2124682
  43.0712601   8.6676834  55.6190546  43.2525481   7.9369189  54.4721274
  43.5094689   8.2035051  55.1629708  39.2099414  13.8781564  62.0148354
  38.7266992  14.6032053  61.9907938  40.0222732  14.1757694  62.1258512
  39.2590162  14.0283917  62.0275633  45.2813568  12.6713744  64.6198168
  44.7640510  12.3121159  64.0159476  45.9787959  12.1475919  64.6304235
  45.3079149  12.5411432  64.5328427  46.5047620  12.4039718  69.5632004
  45.9418455  11.9912328  70.0871665  47.2668643  12.3292624  69.9825147
  46.5342068  12.3317119  69.7025004  48.1132600   4.4092455  53.6893603
  48.3528603   4.6170438  52.8768946  48.4348441   3.6049963  53.7982548
  48.1969758   4.3206556  53.5854156  42.0643611  14.3937740  62.1668634
  42.7664191  13.8789729  62.2241390  41.9841094  14.7211891  62.9715509
  42.1567372  14.3651966  62.2941426  41.3894387  10.5844092  61.6754242
  42.2283286  10.8167024  61.7228003  41.4206156   9.7148403  61.6061277
  41.5176104  10.4901038  61.6718886  42.0147090  11.0044967  65.9767547
  42.5545315  10.8616098  66.6470920  41.3317036  11.4041718  66.3451574
  41.9939244  11.0424638  66.1301969  51.4387975   6.6835967  61.1712572
  52.1945490   7.1167482  61.2101480  51.5450299   6.0340737  61.7447208
  51.5658145   6.6513451  61.2610597  54.4768146  10.5109245  61.9214975
  54.0403378  10.5145987  62.6773946  54.1431061  11.1914744  61.4894552
  54.3630766  10.6121700  61.9695807  41.3241982   2.0230342  52.7453727
  40.6100159   1.7368522  53.1576159  41.8085950   2.3626968  53.3860114
  41.2901345   2.0311992  52.9009362  49.2067613  14.4627680  66.8924581
  48.4082858  14.2227180  67.1498449  49.6553624  14.5142072  67.6391628
  49.1542224  14.4350071  67.0409505  48.4989300  10.5260296  53.1215535
  48.9140448  10.1945320  52.4300031  47.6681229  10.2929198  52.9935672
  48.4377308  10.4431552  53.0006383  37.8277648   8.0104037  63.4113713
  37.6453222   7.9850923  62.5586005  38.5627317   8.4802975  63.4502622
  37.9091712   8.0765399  63.2911632  53.8977323   8.2455547  60.5546601
  54.1332912   8.3900746  59.7273451  54.0466886   9.0097955  60.9478114
  53.9543126   8.3794601  60.4910205  55.7267779   7.0857213  58.3916204
  56.0575996   7.6184853  57.7856299  56.3000867   7.1396101  59.0478155
  55.8601458   7.1726782  58.3993986  50.9399668   4.9322116  59.0739785
  51.0346523   5.6711410  59.5279410  50.3158512   4.5039591  59.5074349
  50.8608699   4.9783436  59.2047932  51.1922690   6.7770855  52.3076737
  51.1102852   6.8473043  53.1731724  51.8302410   7.3400599  52.1160477
  51.2742527   6.8709826  52.4066686  44.5515861   6.5431593  61.7751263
  44.2935105   5.7103328  61.7482562  44.6064344   6.7689206  60.9343763
  44.5215639   6.4529365  61.6471400  43.5250573   4.0969356  62.2616158
  42.9500164   4.2561524  62.8980119  43.1486249   3.4604765  61.7984608
  43.3853385   4.0267169  62.2870716  48.2962800   6.7991310  55.3185343
  49.1103439   7.0906202  55.2068114  48.2321941   6.1451172  54.7443636
  48.4065539   6.7456504  55.2174180  44.1670708  10.2712827  60.4457655
  44.8044655  10.0324575  60.9909449  44.5925780  10.4749986  59.7110816
  44.3246874  10.2663837  60.4174812  38.8583351  12.5101164  64.3291959
  38.8987496  12.7816015  63.5011739  39.4177875  13.0343072  64.7449747
  38.9466697  12.6276919  64.2683847  44.8073523   5.4915117  54.7832545
  45.1918676   5.2722824  55.5349090  44.5585144   6.3178062  54.9133621
  44.8275596   5.5813263  54.9133621  46.5492180  10.7485250  62.1251441
  46.6231188  10.5860422  62.9793291  47.3661687  10.9375439  61.8811923
  46.6808539  10.7521992  62.2149467  40.3097937  11.0943113  59.1545885
  39.4836055  11.3404850  59.0280164  40.3709928  11.0155193  60.0207943
  40.1972104  11.1188062  59.2634829  45.0896766  13.7119993  56.8564915
  45.3795064  13.3208974  56.1324141  45.8200247  13.8936698  57.2970190
  45.2403650  13.6813807  56.8147722  45.6791511   8.5137739  67.9418045
  45.1803205   9.2253506  68.0202934  46.4891735   8.8338405  67.9036208
  45.7247618   8.6664587  67.9474614  43.0302682  15.6887375  59.9225065
  42.8102977  15.3984730  60.7151732  42.8097204  15.0302330  59.3942977
  42.9650276  15.5487084  59.9613973  41.9419629   7.7760692  62.1880766
  41.6532877   7.1498163  62.7226493  42.8102977   7.7180979  62.2545447
  42.0279881   7.6748236  62.2771721  45.1970637  17.0616765  58.7055757
  45.8494695  16.5293207  58.9346783  44.4996246  16.7085417  59.0923631
  45.1901355  16.9306288  58.7967925  42.1451902   9.4155943  58.1123131
  42.8997870   9.7968982  58.3258594  41.5522515   9.8667086  58.5669828
  42.1688616   9.5384770  58.2106010  53.1910556   9.3821179  58.0486736
  53.7568588  10.0414389  57.9645279  52.5438459   9.7270877  58.5203138
  53.1789312   9.5303121  58.1059493  43.4650129  10.5864504  63.4863247
  42.9430882  10.7264796  64.1715111  43.8524149   9.8275168  63.6765364
  43.4453830  10.4950028  63.6164323  40.4541313   0.6370313  57.5558201
  40.1666108   0.2671583  56.8190149  41.1411781   1.1065168  57.2941906
  40.5130210   0.6517282  57.4073277  49.6617134  12.3259963  57.4723815
  49.4203810  11.5927824  57.0650880  49.8418467  12.8746820  56.8190149
  49.6524758  12.2982355  57.3154038  44.8916454   7.6168523  58.8844738
  44.6959237   8.2243258  58.2905041  45.1150800   6.9236467  58.4036412
  44.8951095   7.6046049  58.7260818  43.2894984   4.5023261  59.0025606
  44.0117636   4.6664419  58.5429412  42.8102977   5.2232926  58.8964946
  43.3258715   4.6321491  58.9191220  38.0269507   1.4151525  58.4043482
  38.1285644   2.2177687  58.7324458  38.8225394   1.2138861  58.1066563
  38.1597413   1.5037424  58.4078838  52.8919881  10.0749153  64.0795873
  52.7534240  10.7730199  64.5844616  52.1119878   9.9197810  63.7232055
  52.7563107  10.1549320  64.1022148  44.0296614  14.2925284  66.5693102
  44.1786178  13.7328200  65.9166507  44.8096616  14.3717286  66.9525621
  44.1670708  14.2210850  66.5290051  54.3873253   9.4327407  54.8412373
  54.0080062   8.6464545  54.8341662  53.7239499   9.9814264  54.6984017
  54.2331728   9.3972231  54.8193170  46.5549915  14.4639927  67.8477593
  46.4793586  13.7948738  68.4028381  46.4839774  15.1657715  68.3618259
  46.5330522  14.4684834  68.0054441  47.2120162  12.9840926  58.6801199
  47.9770053  12.7150570  58.3583863  47.1098252  12.4990936  59.3971262
  47.3101657  12.8730491  58.7381027  49.7338822  10.0153110  50.6601148
  50.5011807  10.0753235  50.2507000  49.2870131   9.4433551  50.1757467
  49.7812249   9.9389685  50.5278859  50.6316618   8.8207766  62.9453881
  49.9561619   8.5892998  63.4467268  50.6408994   8.2128948  62.3195986
  50.5335122   8.6966691  62.9270033  52.6333352  11.6772898  55.1764059
  52.7153190  12.4839884  54.8525509  53.1183094  11.6968857  55.9004832
  52.7170510  11.7993560  55.2350957  46.4429856   6.3557734  63.8434136
  46.0192105   6.5562233  63.1073155  46.2674711   5.5086582  63.9558436
  46.3540736   6.2606515  63.7507827  45.9441549  17.8708247  66.3055594
  46.4337479  17.1719036  66.1231258  45.3725781  17.5732117  66.8931651
  45.9326079  17.7234470  66.3656635  41.7312301   6.8509785  59.2762109
  41.8876920   6.7856588  60.1318101  42.0712894   7.6258338  59.0640789
  41.8045535   6.9558983  59.3716703  48.2691445   6.2267669  58.1455472
  48.8106991   5.7238050  58.6094093  48.5838004   6.1732864  57.3344957
  48.3955842   6.1447090  58.0939284  46.4377895  11.6185020  55.4295500
  46.5070715  10.7599559  55.5688501  47.2166350  11.8356901  55.1014525
  46.5630745  11.5237884  55.4012658  50.8285382  14.0422722  59.6431994
  50.4365174  13.7389437  58.9254860  50.9838455  14.8791812  59.4536947
  50.7938972  14.1206558  59.5088491  38.3046562   4.0344736  59.5922876
  38.6845527   4.4529281  58.9283144  37.7301927   4.6158191  59.8991720
  38.2757887   4.1822595  59.5399617  50.9925057  10.6072711  59.5838024
  50.6339712  10.7787353  60.3602057  50.5063768  11.0685916  59.0266023
  50.8683754  10.7011682  59.6163293  45.7813423   6.2871876  52.1238259
  46.0705947   7.0636758  52.3981833  45.8685221   5.7760607  52.8252758
  45.8367679   6.3263794  52.2680756  41.9477364   5.6005140  64.2238371
  41.1065370   5.5009015  64.4317264  42.1567371   6.3700621  64.5752691
  41.8542056   5.6997184  64.3065686  45.7594028   3.5286540  63.4735968
  45.4557166   2.9742528  64.0746376  45.0573449   3.7078750  62.9864002
  45.6110238   3.4731322  63.4905674  41.8386171   7.9948903  65.6430004
  41.2474105   8.6358401  65.6133019  42.6007195   8.4186520  65.6161303
  41.8634432   8.1524741  65.6345151  51.5975688  13.4458214  63.0762028
  51.3995376  13.9349029  62.3818239  50.9763399  13.6499456  63.6546161
  51.4763252  13.5474753  63.0585251  45.6583666   5.2143111  57.4172272
  46.4025711   5.6017387  57.6555222  45.8044362   4.3700537  57.5812760
  45.7894251   5.1473584  57.4766242  50.1282124  10.2508703  55.5101602
  50.8516323  10.7166816  55.3666176  49.6882715  10.3182312  54.7599199
  50.1697816  10.3292539  55.3786384  49.2968279   7.1106245  66.7602291
  48.6825272   6.5664295  67.0550927  49.8135564   6.5970481  66.2808108
  49.2823942   6.9542654  66.7326520  48.5364576   8.1810515  64.4946590
  48.1092184   7.5560234  64.0612025  48.5289521   7.8985437  65.3205597
  48.4723717   8.0463296  64.5526418  42.9402015   2.5766189  56.9158885
  43.0804976   3.0738653  57.6187526  43.4384548   1.8752484  57.0573099
  43.0343096   2.5468168  57.0410464  42.9702238   3.4433300  54.2451462
  43.6047317   4.0393725  54.1800924  43.0527849   3.1436758  55.0597332
  43.0758789   3.4874208  54.3554548  47.7778193  10.3966150  67.7395720
  47.2703284  10.9501997  68.1836350  47.4804840  10.4574440  66.9214494
  47.6583078  10.4872461  67.6844177  39.4755226   5.6401141  57.5141008
  39.9847455   6.2365648  57.8952313  39.9489498   5.3727115  56.8317428
  39.6198601   5.6886956  57.4695531  50.3885974  14.3129408  55.6699663
  49.6715283  14.1390270  55.2046901  51.0392711  14.0781980  55.1375149
  50.3787824  14.2525200  55.5228881  47.0220679  15.3290708  64.6452727
  46.7986333  14.5709537  65.0136753  46.5330522  15.3588729  63.9233167
  46.9164128  15.2212933  64.5929468  41.8345757   2.2757399  60.3814188
  41.1157747   2.6921532  60.6487052  42.2058120   2.8411638  59.8305826
  41.7837689   2.4206681  60.3396995  45.6699136  15.5491166  62.0989812
  45.2559534  14.8865296  61.7093653  46.3546510  15.6969025  61.5785506
  45.7097507  15.4731824  61.9646309  49.0364430  14.7081252  62.8513428
  48.6380713  14.8183522  62.0834248  48.4215649  14.9163318  63.4339988
  48.8863319  14.7554820  62.8244727  56.7706272   9.2833218  56.2356519
  57.1539878  10.0324574  56.4654616  55.9750386   9.5299038  55.9768508
  56.7100055   9.4302912  56.2314092  45.5821564   1.9552650  53.8116898
  45.9620529   1.9732279  53.0268012  44.8414160   2.4006639  53.6907745
  45.5290402   2.0234425  53.6780466  50.9347707   4.9432343  63.0528683
  51.4301372   4.2255338  63.0132703  50.1247482   4.6403141  62.9383170
  50.8891600   4.7929989  63.0302409  46.3806318   8.7930156  55.2025688
  45.5717641   8.4696830  55.1558997  46.8881227   8.0863378  55.1353936
  46.3355985   8.6411473  55.1855982  37.0096595   6.2202349  60.9273052
  36.1442115   6.2088040  60.8155823  37.1095411   6.0332572  61.7744191
  36.8970762   6.1908411  61.0361996  42.6353605  15.9900248  64.5003157
  42.9500164  16.8036636  64.5080939  43.0447019  15.6050467  65.1685317
  42.7421703  16.0528950  64.6007249  49.5878125  11.4070295  62.0706969
  50.0589303  12.1210557  62.2396955  49.9238303  10.8069045  62.6066839
  49.7073240  11.4241759  62.1739345  50.2252071  11.1988229  68.8334662
  49.6773017  10.5746112  68.5654727  50.6865100  11.3882501  68.1178741
  50.2119281  11.1347279  68.6885093  39.9766625   9.9373356  64.1481766
  40.5811483   9.8969191  63.5195587  39.7693938  10.7844508  64.1785822
  40.0355523  10.0561359  64.0597882  49.7910398  12.2039302  65.3644003
  50.6108771  12.0602268  65.6260298  49.5104475  12.8285500  65.9060441
  49.8707141  12.2749654  65.4831943  66.2624048  19.8604153  58.3286880
  66.2318052  20.7148790  58.5005149  66.8605397  19.5599446  58.8873023
  66.3461206  19.9420650  58.4361682  59.4623733  18.9479804  63.0839810
  58.6061628  19.1088303  63.1348927  59.5091386  18.0771868  63.1044871
  59.3422844  18.8430606  63.0945876  53.8464872  28.4842522  58.8477042
  53.0947772  28.1058060  58.6193087  54.2950884  28.5160956  58.0995852
  53.8014539  28.4328129  58.7034544  59.2989832  28.9067892  54.2762589
  58.9641201  29.5844813  53.8406811  59.8116703  28.5173203  53.6879460
  59.3255413  28.9492470  54.1249380  58.8394124  30.8582160  60.2173700
  59.2233503  31.4269059  59.6778476  58.7753265  30.1331671  59.7379516
  58.8867551  30.8357624  60.0667563  55.4249629  28.4960914  61.1139814
  55.5259992  27.6861268  61.4236942  54.8291374  28.4017861  60.4839493
  55.3522167  28.3625942  61.0666053  64.0840622  22.4356455  56.6005189
  63.9680148  23.1864141  57.0297328  64.8796509  22.1780409  56.8501277
  64.1845212  22.5091302  56.7009281  55.2650368  33.4138503  62.5154670
  55.9087824  33.8551668  62.9050829  55.5906624  32.6091930  62.4284929
  55.4082197  33.3603698  62.5600147  48.6214673  24.5181201  60.7392148
  48.3864857  23.6848853  60.6324417  48.7600314  24.7985867  59.9253349
  48.6070335  24.4364704  60.6034503  50.9204760  16.6866931  63.6376455
  50.3009792  16.0959579  63.4686470  50.8188624  17.2778367  63.0040779
  50.8142436  16.6871014  63.5181445  55.9670948  26.4250478  57.8874532
  56.2886789  26.9655686  57.2835840  56.6143044  25.8547250  58.0196822
  56.1097003  26.4209653  57.8181567  58.0172656  18.4266473  57.9708919
  58.7152821  18.6054601  58.4630382  58.3324989  17.9036813  57.3479308
  58.1667993  18.3760245  57.9510929  50.6473893  20.2319213  65.8820024
  50.5232590  20.8181659  66.5169843  51.2992178  19.7379409  66.1832299
  50.7247543  20.2458018  66.0205954  58.2060591  24.8136918  57.9588710
  58.6454227  24.2054019  58.4043483  58.0565254  24.4344292  57.1874175
  58.2482057  24.6675389  57.9107877  55.6732234  23.4080930  65.1607536
  56.3181237  22.9153373  64.8418484  55.9134011  23.5505717  65.9873614
  55.8042819  23.3558372  65.2357069  58.2118326  26.2535836  64.8114428
  58.4941569  25.4587242  64.5901184  58.9404486  26.7316423  64.8319489
  58.3607889  26.2070433  64.7817443  56.1899520  13.7958870  62.0530193
  55.8602850  14.2470013  61.3833892  55.5144521  13.7175033  62.6003200
  56.0409956  13.8510005  62.0353416  61.8069928  23.1664100  54.9119479
  61.7221223  24.0225066  55.0569048  62.2954311  22.8908424  55.5801638
  61.8658825  23.2521421  55.0321561  62.7388361  19.7848894  56.4117214
  62.2099833  20.0008527  57.0714521  63.2613381  20.4785032  56.3318184
  62.7376814  19.9192031  56.4972814  68.1936414  25.3595198  61.7850259
  67.3634117  25.5705842  61.9483675  68.1445666  24.5332253  61.5092542
  68.0643149  25.2684804  61.7687624  54.6287969  23.6812111  55.2124682
  54.0445184  24.1862142  55.6190546  54.2258064  23.4554497  54.4721274
  54.4827273  23.7220359  55.1629708  50.1831998  29.3966872  62.0148354
  49.6999576  30.1217361  61.9907938  50.9955316  29.6943002  62.1258512
  50.2322745  29.5469225  62.0275633  56.2546152  28.1899052  64.6198168
  55.7373093  27.8306467  64.0159476  56.9520543  27.6661227  64.6304235
  56.2811733  28.0596740  64.5328427  57.4780203  27.9225026  69.5632004
  56.9151038  27.5097636  70.0871665  58.2401227  27.8477932  69.9825147
  57.5074652  27.8502427  69.7025004  59.0865183  19.9277763  53.6893603
  59.3261187  20.1355746  52.8768946  59.4081024  19.1235271  53.7982548
  59.1702341  19.8391864  53.5854156  54.3955474  11.8571158  57.5353141
  55.1501442  12.2249475  57.2970191  54.2183008  12.2310713  58.3032321
  54.4809952  11.9669346  57.6138029  53.0376195  29.9123048  62.1668634
  53.7396774  29.3975037  62.2241390  52.9573678  30.2397199  62.9715509
  53.1299955  29.8837274  62.2941426  52.7512538  14.2641477  54.2331254
  52.5688112  14.4813358  53.4072247  53.6138151  14.3780490  54.2889868
  52.8517128  14.3131375  54.1185741  52.3626970  26.1029400  61.6754242
  53.2015870  26.3352332  61.7228003  52.3938739  25.2333711  61.6061277
  52.4908688  26.0086346  61.6718886  52.9879673  26.5230275  65.9767547
  53.5277898  26.3801406  66.6470920  52.3049620  26.9227026  66.3451574
  52.9671827  26.5609946  66.1301969  58.4312257  11.2667888  57.2680278
  59.1598418  11.0883843  56.8218434  58.5207150  12.1085968  57.4787456
  58.5518920  11.3651766  57.2333795  62.4120558  22.2021275  61.1712572
  63.1678073  22.6352790  61.2101480  62.5182883  21.5526045  61.7447208
  62.5390729  22.1698759  61.2610597  65.4500729  26.0294553  61.9214975
  65.0135961  26.0331295  62.6773946  65.1163645  26.7100052  61.4894552
  65.3363349  26.1307008  61.9695807  48.3916818  22.7430566  66.1301969
  48.1255234  21.9269682  66.2892959  48.4055382  22.7883721  65.2597484
  48.3541541  22.6287470  66.0255451  52.2974565  17.5415650  52.7453727
  51.5832742  17.2553829  53.1576159  52.7818534  17.8812276  53.3860114
  52.2633929  17.5497300  52.9009362  60.1800196  29.9812987  66.8924581
  59.3815442  29.7412488  67.1498449  60.6286208  30.0327380  67.6391628
  60.1274807  29.9535379  67.0409505  59.4721883  26.0445604  53.1215535
  59.8873032  25.7130628  52.4300031  58.6413813  25.8114506  52.9935672
  59.4109892  25.9616860  53.0006383  48.8010232  23.5289345  63.4113713
  48.6185805  23.5036231  62.5586005  49.5359901  23.9988283  63.4502622
  48.8824296  23.5950707  63.2911632  64.8709906  23.7640855  60.5546601
  65.1065495  23.9086054  59.7273451  65.0199470  24.5283263  60.9478114
  64.9275709  23.8979909  60.4910205  51.8655984  20.2474348  69.9195822
  52.5895956  20.2327378  70.4060716  51.9672120  20.9569703  69.4217790
  51.9874193  20.3499051  69.9174609  66.7000363  22.6042521  58.3916204
  67.0308580  23.1370161  57.7856299  67.2733451  22.6581409  59.0478155
  66.8334042  22.6912090  58.3993986  61.9132252  20.4507424  59.0739785
  62.0079106  21.1896718  59.5279410  61.2891096  20.0224899  59.5074349
  61.8341282  20.4968744  59.2047932  48.7681142  20.4082846  63.5612780
  49.3454645  20.2719296  64.2005025  48.0695204  19.9518630  63.8158364
  48.7502164  20.3205112  63.6935069  62.1655273  22.2956163  52.3076737
  62.0835436  22.3658350  53.1731724  62.8034994  22.8585907  52.1160477
  62.2475111  22.3895134  52.4066686  55.5248445  22.0616901  61.7751263
  55.2667689  21.2288636  61.7482562  55.5796927  22.2874514  60.9343763
  55.4948222  21.9714673  61.6471400  60.6049495  14.1645352  61.8755356
  59.9005821  13.6754537  62.0339275  60.6534469  14.1767826  61.0043800
  60.5079546  14.0935000  61.7694695  54.4983157  19.6154664  62.2616158
  53.9232748  19.7746832  62.8980119  54.1218833  18.9790073  61.7984608
  54.3585969  19.5452477  62.2870716  44.2439976  19.2594739  60.2760598
  44.3300227  18.8826607  61.0574128  44.8715773  18.8855184  59.7980557
  44.3496527  19.1480221  60.3206076  59.2695384  22.3176618  55.3185343
  60.0836022  22.6091510  55.2068114  59.2054525  21.6636480  54.7443636
  59.3798123  22.2641812  55.2174180  55.1403292  25.7898135  60.4457655
  55.7777239  25.5509883  60.9909449  55.5658363  25.9935294  59.7110816
  55.2979458  25.7849145  60.4174812  49.8315934  28.0286472  64.3291959
  49.8720079  28.3001323  63.5011739  50.3910458  28.5528380  64.7449747
  49.9199280  28.1462227  64.2683847  55.7806107  21.0100425  54.7832545
  56.1651260  20.7908132  55.5349090  55.5317727  21.8363370  54.9133621
  55.8008179  21.0998571  54.9133621  57.5224764  26.2670558  62.1251441
  57.5963772  26.1045730  62.9793291  58.3394270  26.4560747  61.8811923
  57.6541122  26.2707300  62.2149467  51.2830520  26.6128421  59.1545885
  50.4568638  26.8590158  59.0280164  51.3442512  26.5340501  60.0207943
  51.1704687  26.6373370  59.2634829  53.5006544  12.6797362  60.1141325
  52.6328970  12.7519961  60.1798934  53.7881749  13.4819440  60.3029300
  53.4146292  12.8091509  60.1516092  56.0629349  29.2305301  56.8564915
  56.3527648  28.8394282  56.1324141  56.7932830  29.4122006  57.2970190
  56.2136234  29.1999115  56.8147722  56.6524095  24.0323047  67.9418045
  56.1535788  24.7438814  68.0202934  57.4624319  24.3523713  67.9036208
  56.6980201  24.1849895  67.9474614  54.0035265  31.2072683  59.9225065
  53.7835560  30.9170038  60.7151732  53.7829787  30.5487638  59.3942977
  53.9382859  31.0672392  59.9613973  52.9152212  23.2946000  62.1880766
  52.6265461  22.6683471  62.7226493  53.7835560  23.2366287  62.2545447
  53.0012464  23.1933544  62.2771721  56.1703221  32.5802073  58.7055757
  56.8227279  32.0478515  58.9346783  55.4728830  32.2270725  59.0923631
  56.1633939  32.4491596  58.7967925  53.1184486  24.9341251  58.1123131
  53.8730454  25.3154290  58.3258594  52.5255098  25.3852394  58.5669828
  53.1421199  25.0570078  58.2106010  64.1643139  24.9006487  58.0486736
  64.7301172  25.5599697  57.9645279  63.5171043  25.2456185  58.5203138
  64.1521896  25.0488428  58.1059493  54.4382712  26.1049812  63.4863247
  53.9163466  26.2450104  64.1715111  54.8256733  25.3460476  63.6765364
  54.4186413  26.0135336  63.6164323  51.4273896  16.1555621  57.5558201
  51.1398692  15.7856891  56.8190149  52.1144365  16.6250476  57.2941906
  51.4862794  16.1702590  57.4073277  60.6349717  27.8445271  57.4723815
  60.3936393  27.1113132  57.0650880  60.8151050  28.3932128  56.8190149
  60.6257341  27.8167662  57.3154038  55.8649038  23.1353831  58.8844738
  55.6691821  23.7428566  58.2905041  56.0883383  22.4421775  58.4036412
  55.8683679  23.1231357  58.7260818  54.2627568  20.0208569  59.0025606
  54.9850220  20.1849727  58.5429412  53.7835561  20.7418234  58.8964946
  54.2991299  20.1506799  58.9191220  51.9135185  22.4266641  68.1079746
  52.4256282  22.7050895  67.4588506  51.6271527  23.1655935  68.4742559
  51.9470048  22.5768995  68.0669624  60.6690354  13.2557745  59.1149907
  61.3716707  13.0565493  58.6369865  60.4034542  12.4833687  59.4218750
  60.7336986  13.1120711  59.0895348  49.0002091  16.9336833  58.4043482
  49.1018227  17.7362995  58.7324458  49.7957978  16.7324169  58.1066563
  49.1329997  17.0222732  58.4078838  49.8165823  17.0484011  66.1464604
  49.6751315  16.1967952  66.2709112  50.1006386  17.0912672  65.3226810
  49.8373669  16.9283762  66.0432228  59.9704415  18.8851102  60.2909092
  59.7239130  18.8046853  61.1245881  60.2989538  18.1004570  60.0971620
  59.9825659  18.7577367  60.3856615  63.8652464  25.5934461  64.0795873
  63.7266823  26.2915507  64.5844616  63.0852462  25.4383118  63.7232055
  63.7295691  25.6734628  64.1022148  55.9301443  21.6207820  69.7032075
  56.0744818  22.2009028  69.0675185  56.2777091  21.9984117  70.4081930
  56.0028904  21.7628524  69.7131070  58.1021360  20.8197989  67.4857207
  57.3544674  21.0129003  67.0805485  58.2562885  19.9943208  67.2481328
  58.0143788  20.7263100  67.3902613  55.0029198  29.8110592  66.5693102
  55.1518761  29.2513508  65.9166507  55.7829200  29.8902594  66.9525621
  55.1403291  29.7396158  66.5290051  65.3605837  24.9512715  54.8412373
  64.9812646  24.1649853  54.8341662  64.6972082  25.4999572  54.6984017
  65.2064312  24.9157539  54.8193170  57.5282498  29.9825235  67.8477593
  57.4526169  29.3134046  68.4028381  57.4572357  30.6843023  68.3618259
  57.5063105  29.9870142  68.0054441  50.5856128  14.9614359  69.4642054
  50.0498318  14.3494717  69.7802822  50.6473893  15.5362495  70.1175721
  50.5151761  14.9561287  69.6077481  58.1852745  28.5026234  58.6801199
  58.9502636  28.2335878  58.3583863  58.0830835  28.0176244  59.3971262
  58.2834241  28.3915799  58.7381027  56.2205515  16.7050643  65.2194435
  55.4301590  16.5242103  65.5411770  56.6166138  15.9277596  65.2024729
  56.1622391  16.5638104  65.2646983  60.7071406  25.5338418  50.6601148
  61.4744391  25.5938543  50.2507000  60.2602715  24.9618859  50.1757467
  60.7544833  25.4574993  50.5278859  61.6049201  24.3393073  62.9453881
  60.9294203  24.1078306  63.4467268  61.6141577  23.7314256  62.3195986
  61.5067706  24.2151999  62.9270033  63.6065936  27.1958206  55.1764059
  63.6885773  28.0025192  54.8525509  64.0915678  27.2154165  55.9004832
  63.6903094  27.3178868  55.2350957  57.4162439  21.8743042  63.8434136
  56.9924688  22.0747541  63.1073155  57.2407294  21.0271890  63.9558436
  57.3273320  21.7791823  63.7507827  56.9174133  33.3893555  66.3055594
  57.4070063  32.6904344  66.1231258  56.3458365  33.0917425  66.8931651
  56.9058663  33.2419778  66.3656635  52.7044884  22.3695093  59.2762109
  52.8609503  22.3041896  60.1318101  53.0445477  23.1443646  59.0640789
  52.7778119  22.4744291  59.3716703  59.2424029  21.7452977  58.1455472
  59.7839574  21.2423358  58.6094093  59.5570588  21.6918171  57.3344957
  59.3688426  21.6632398  58.0939284  57.4110478  27.1370328  55.4295500
  57.4803299  26.2784867  55.5688501  58.1898934  27.3542209  55.1014525
  57.5363328  27.0423192  55.4012658  61.8017966  29.5608030  59.6431994
  61.4097758  29.2574745  58.9254860  61.9571038  30.3977120  59.4536947
  61.7671556  29.6391866  59.5088491  49.2779146  19.5530044  59.5922876
  49.6578110  19.9714589  58.9283144  48.7034510  20.1343499  59.8991720
  49.2490470  19.7007902  59.5399617  61.9657641  26.1258018  59.5838024
  61.6072295  26.2972661  60.3602057  61.4796352  26.5871224  59.0266023
  61.8416338  26.2196990  59.6163293  56.7546006  21.8057184  52.1238259
  57.0438531  22.5822066  52.3981833  56.8417805  21.2945915  52.8252758
  56.8100262  21.8449102  52.2680756  52.9209947  21.1190448  64.2238371
  52.0797954  21.0194323  64.4317264  53.1299955  21.8885929  64.5752691
  52.8274640  21.2182492  64.3065686  50.3985514  18.7409985  62.0523121
  50.0042212  18.8152997  61.2773231  49.8425631  19.1267932  62.6031483
  50.2588326  18.8091760  62.0190781  56.7326612  19.0471848  63.4735968
  56.4289749  18.4927836  64.0746376  56.0306033  19.2264058  62.9864002
  56.5842822  18.9916630  63.4905674  55.7892709  16.3572367  58.0380670
  56.0652443  15.6391280  57.6258238  56.3891378  16.9557287  57.8301776
  55.9185974  16.3392738  57.9461431  54.7944963  26.2621568  68.1808066
  54.6865318  26.2723630  69.0470124  55.0040744  27.0876349  67.9913020
  54.8095074  26.3862643  68.2812158  59.2903230  14.0285885  56.3127265
  59.7446976  14.1996445  57.0375110  59.7643275  13.4153995  55.9125041
  59.4271550  13.9636770  56.3601027  52.8118755  23.5134211  65.6430004
  52.2206688  24.1543709  65.6133019  53.5739779  23.9371828  65.6161303
  52.8367016  23.6710049  65.6345151  53.2079378  14.6736208  66.3098021
  53.6680859  14.7475138  67.0473145  53.2535485  15.4717463  65.9597842
  53.2829933  14.8030356  66.3670778  62.5708271  28.9643522  63.0762028
  62.3727960  29.4534337  62.3818239  61.9495982  29.1684764  63.6546161
  62.4495836  29.0660061  63.0585251  56.6316250  20.7328419  57.4172272
  57.3758295  21.1202695  57.6555222  56.7776946  19.8885844  57.5812760
  56.7626835  20.6658892  57.4766242  59.6194125  16.3053892  63.3166192
  59.1454080  15.7795654  63.8271502  59.9912261  15.7583365  62.7481053
  59.6044014  16.1469889  63.3081339  49.9967156  18.3025399  68.6849737
  50.8592769  18.2021108  68.5987067  49.6658939  17.7220108  68.1235309
  50.0752352  18.2017026  68.5895143  61.5477625  17.1990447  56.3791945
  61.0200644  17.2819191  55.6897654  62.0073333  17.9408318  56.3756590
  61.5379476  17.3211109  56.2766641  53.3568942  17.1267848  65.3460156
  52.7322012  17.1386240  64.7386108  53.0214536  17.6028023  65.9951396
  53.2154433  17.1986365  65.3516724  53.5410690  15.4692967  51.4032841
  53.1923495  16.1212692  51.8664390  53.0607136  15.4550080  50.6756712
  53.4180934  15.5636020  51.3643932  50.0694617  25.1868308  66.7863920
  49.5394542  24.4960747  66.8358895  50.3419710  25.1778494  65.9576628
  50.0319339  25.0835440  66.6711336  61.1014708  25.7694011  55.5101602
  61.8248906  26.2352124  55.3666176  60.6615299  25.8367620  54.7599199
  61.1430400  25.8477847  55.3786384  60.2700863  22.6291553  66.7602291
  59.6557856  22.0849603  67.0550927  60.7868148  22.1155789  66.2808108
  60.2556525  22.4727962  66.7326520  59.5097160  23.6995823  64.4946590
  59.0824768  23.0745542  64.0612025  59.5022104  23.4170745  65.3205597
  59.4456301  23.5648604  64.5526418  52.6259687  18.7360996  67.5635024
  52.7853174  17.9804320  67.9686746  52.4452581  19.2851935  68.2175762
  52.6225046  18.7054810  67.7197730  45.3490459  21.8596072  64.1432268
  45.2433908  21.8142917  63.2784352  44.5990679  22.2049853  64.4246553
  45.2226062  21.9036981  64.0569598  54.1184192  13.3035396  64.0894868
  54.1582563  13.8044602  64.8029576  53.2933856  13.3945789  63.8200791
  54.0023718  13.3917212  64.1545407  55.5398555  19.8195905  66.3868767
  54.7090485  19.9869723  66.1804015  55.4850072  19.4431856  67.1717653
  55.4087970  19.7885637  66.4717295  53.9134599  18.0951497  56.9158885
  54.0537560  18.5923961  57.6187526  54.4117132  17.3937791  57.0573099
  54.0075680  18.0653476  57.0410464  53.9434821  18.9618608  54.2451462
  54.5779901  19.5579033  54.1800924  54.0260432  18.6622066  55.0597332
  54.0491372  19.0059516  54.3554548  55.5213804  14.8932583  54.2196904
  55.8429645  14.4135666  53.5656166  55.7840748  15.7032230  54.0287716
  55.6079830  14.9422481  54.0952396  58.7510777  25.9151458  67.7395720
  58.2435868  26.4687305  68.1836350  58.4537423  25.9759748  66.9214494
  58.6315662  26.0057769  67.6844177  50.4487809  21.1586449  57.5141008
  50.9580039  21.7550956  57.8952313  50.9222082  20.8912422  56.8317428
  50.5931185  21.2072264  57.4695531  61.3618557  29.8314716  55.6699663
  60.6447867  29.6575578  55.2046901  62.0125295  29.5967288  55.1375149
  61.3520408  29.7710508  55.5228881  59.3567182  10.7519877  59.9910960
  58.7135500  10.6017524  60.5596098  59.0166589  10.5062222  59.2260065
  59.2112259  10.6932000  59.9613975  63.9466528  18.7079304  59.4140969
  63.2757718  19.2509006  59.2854034  64.6406279  19.1774159  59.1722663
  63.9495396  18.8577575  59.3596496  57.9953262  30.8476016  64.6452727
  57.7718917  30.0894845  65.0136753  57.5063106  30.8774037  63.9233167
  57.8896711  30.7398241  64.5929468  52.8078341  17.7942707  60.3814188
  52.0890330  18.2106840  60.6487052  53.1790703  18.3596946  59.8305826
  52.7570273  17.9391989  60.3396995  56.6431719  31.0676474  62.0989812
  56.2292118  30.4050604  61.7093653  57.3279093  31.2154333  61.5785506
  56.6830091  30.9917132  61.9646309  60.0097013  30.2266559  62.8513428
  59.6113297  30.3368830  62.0834248  59.3948233  30.4348626  63.4339988
  59.8595903  30.2740127  62.8244727  58.5824915  16.8340707  55.7187568
  57.9889755  17.1557704  55.1672135  58.6200193  15.9881803  55.5108674
  58.4999304  16.7565036  55.6070339  61.4582732  16.7920212  59.1489318
  61.2296425  16.8152913  58.3067676  61.7180808  15.9677679  59.2684329
  61.4628920  16.6736292  59.0414516  50.5867675  17.0892260  71.4016780
  50.4170265  17.7493635  70.8564987  50.1433625  17.2998821  72.1229269
  50.4967009  17.2178242  71.4278409  54.5127494  15.3296758  60.4443514
  54.9884861  15.6913838  59.8093695  54.0116094  15.9853226  60.7243656
  54.5092853  15.4790947  60.3920255  67.7438856  24.8018526  56.2356519
  68.1272462  25.5509882  56.4654616  66.9482969  25.0484346  55.9768508
  67.6832638  24.9488220  56.2314092  47.4869740  19.9939126  66.6605270
  46.9396459  19.3239771  66.7786138  48.2762118  19.6268974  66.7248737
  47.5221923  19.8404112  66.6873970  56.5554148  17.4737958  53.8116898
  56.9353112  17.4917587  53.0268012  55.8146744  17.9191947  53.6907745
  56.5022985  17.5419732  53.6780466  64.1839438  15.7820149  59.3992476
  64.1833665  15.6268806  60.2576753  63.9795618  16.6283136  59.3433862
  64.1539216  15.8840770  59.5180416  46.2456709  19.2059933  63.8151293
  46.0678470  18.7536542  64.5406208  45.9575731  20.0086095  63.9989770
  46.1769662  19.2582491  63.9494796  61.9080290  20.4617651  63.0528683
  62.4033955  19.7440646  63.0132703  61.0980066  20.1588449  62.9383170
  61.8624183  20.3115297  63.0302409  57.3538902  24.3115464  55.2025688
  56.5450224  23.9882138  55.1558997  57.8613811  23.6048686  55.1353936
  57.3088568  24.1596780  55.1855982  47.9829179  21.7387657  60.9273052
  47.1174698  21.7273348  60.8155823  48.0827995  21.5517880  61.7744191
  47.8703346  21.7093718  61.0361996  53.6086189  31.5085556  64.5003157
  53.9232748  32.3221944  64.5080939  54.0179602  31.1235775  65.1685317
  53.7154287  31.5714258  64.6007249  60.5610708  26.9255603  62.0706969
  61.0321887  27.6395865  62.2396955  60.8970887  26.3254353  62.6066839
  60.6805824  26.9427067  62.1739345  61.1984655  26.7173537  68.8334662
  60.6505601  26.0931420  68.5654727  61.6597684  26.9067809  68.1178741
  61.1851864  26.6532587  68.6885093  56.5473318  13.6999486  56.4944529
  57.3689013  13.8697799  56.2526224  56.0842969  13.8546747  55.7710827
  56.6004481  13.7481219  56.3516173  50.9499209  25.4558664  64.1481766
  51.5544066  25.4154498  63.5195587  50.7426521  26.3029816  64.1785822
  51.0088106  25.5746667  64.0597882  60.7642981  27.7224609  65.3644003
  61.5841355  27.5787576  65.6260298  60.4837059  28.3470808  65.9060441
  60.8439724  27.7934962  65.4831943  46.1850491  24.4393282  64.0180689
  46.0874769  23.6289553  64.3270746  46.9679361  24.4185075  63.6326957
  46.2866628  24.3160372  64.0067552  70.4356316  34.4665112  63.0839810
  69.5794212  34.6273610  63.1348927  70.4823970  33.5957176  63.1044871
  70.3155428  34.3615914  63.0945876  64.8197456  44.0027830  58.8477042
  64.0680356  43.6243368  58.6193087  65.2683468  44.0346264  58.0995852
  64.7747123  43.9513437  58.7034544  70.2722416  44.4253200  54.2762589
  69.9373784  45.1030121  53.8406811  70.7849286  44.0358511  53.6879460
  70.2987997  44.4677778  54.1249380  69.8126707  46.3767468  60.2173700
  70.1966087  46.9454367  59.6778476  69.7485848  45.6516979  59.7379516
  69.8600134  46.3542932  60.0667563  66.3982212  44.0146222  61.1139814
  66.4992575  43.2046576  61.4236942  65.8023957  43.9203169  60.4839493
  66.3254751  43.8811250  61.0666053  59.5947256  40.0366509  60.7392148
  59.3597441  39.2034161  60.6324417  59.7332897  40.3171174  59.9253349
  59.5802919  39.9550012  60.6034503  61.8937344  32.2052239  63.6376455
  61.2742376  31.6144887  63.4686470  61.7921208  32.7963675  63.0040779
  61.7875019  32.2056322  63.5181445  66.9403532  41.9435786  57.8874532
  67.2619373  42.4840994  57.2835840  67.5875628  41.3732558  58.0196822
  67.0829587  41.9394961  57.8181567  68.9905240  33.9451781  57.9708919
  69.6885404  34.1239909  58.4630382  69.3057572  33.4222121  57.3479308
  69.1400577  33.8945553  57.9510929  61.6206477  35.7504521  65.8820024
  61.4965174  36.3366967  66.5169843  62.2724761  35.2564717  66.1832299
  61.6980126  35.7643326  66.0205954  69.1793175  40.3322226  57.9588710
  69.6186810  39.7239327  58.4043483  69.0297838  39.9529600  57.1874175
  69.2214641  40.1860697  57.9107877  66.6464818  38.9266238  65.1607536
  67.2913820  38.4338681  64.8418484  66.8866595  39.0691025  65.9873614
  66.7775403  38.8743680  65.2357069  67.1632103  29.3144178  62.0530193
  66.8335433  29.7655321  61.3833892  66.4877105  29.2360341  62.6003200
  67.0142539  29.3695313  62.0353416  65.6020553  39.1997418  55.2124682
  65.0177768  39.7047450  55.6190546  65.1990648  38.9739805  54.4721274
  65.4559856  39.2405667  55.1629708  61.1564581  44.9152180  62.0148354
  60.6732159  45.6402669  61.9907938  61.9687899  45.2128310  62.1258512
  61.2055329  45.0654533  62.0275633  70.0597767  35.4463071  53.6893603
  70.2993771  35.6541054  52.8768946  70.3813608  34.6420579  53.7982548
  70.1434925  35.3577172  53.5854156  65.3688057  27.3756466  57.5353141
  66.1234025  27.7434783  57.2970191  65.1915592  27.7496021  58.3032321
  65.4542536  27.4854654  57.6138029  64.0108778  45.4308355  62.1668634
  64.7129358  44.9160345  62.2241390  63.9306261  45.7582507  62.9715509
  64.1032539  45.4022582  62.2941426  63.3359554  41.6214707  61.6754242
  64.1748453  41.8537640  61.7228003  63.3671323  40.7519019  61.6061277
  63.4641271  41.5271654  61.6718886  69.4044841  26.7853196  57.2680278
  70.1331001  26.6069151  56.8218434  69.4939734  27.6271276  57.4787456
  69.5251503  26.8837074  57.2333795  59.3649402  38.2615873  66.1301969
  59.0987817  37.4454990  66.2892959  59.3787966  38.3069029  65.2597484
  59.3274124  38.1472778  66.0255451  63.2707149  33.0600958  52.7453727
  62.5565326  32.7739137  53.1576159  63.7551118  33.3997584  53.3860114
  63.2366512  33.0682608  52.9009362  70.4454467  41.5630912  53.1215535
  70.8605615  41.2315936  52.4300031  69.6146396  41.3299814  52.9935672
  70.3842476  41.4802168  53.0006383  59.7742816  39.0474653  63.4113713
  59.5918389  39.0221539  62.5586005  60.5092484  39.5173591  63.4502622
  59.8556879  39.1136015  63.2911632  59.7413726  35.9268154  63.5612780
  60.3187229  35.7904604  64.2005025  59.0427788  35.4703938  63.8158364
  59.7234747  35.8390420  63.6935069  66.4981028  37.5802209  61.7751263
  66.2400272  36.7473944  61.7482562  66.5529511  37.8059822  60.9343763
  66.4680806  37.4899980  61.6471400  71.5782078  29.6830660  61.8755356
  70.8738405  29.1939845  62.0339275  71.6267053  29.6953134  61.0043800
  71.4812130  29.6120308  61.7694695  65.4715740  35.1339972  62.2616158
  64.8965332  35.2932140  62.8980119  65.0951417  34.4975381  61.7984608
  65.3318553  35.0637785  62.2870716  55.2172559  34.7780046  60.2760598
  55.3032811  34.4011915  61.0574128  55.8448357  34.4040492  59.7980557
  55.3229110  34.6665529  60.3206076  70.2427967  37.8361926  55.3185343
  71.0568606  38.1276818  55.2068114  70.1787108  37.1821788  54.7443636
  70.3530706  37.7827120  55.2174180  66.1135875  41.3083443  60.4457655
  66.7509822  41.0695191  60.9909449  66.5390947  41.5120602  59.7110816
  66.2712042  41.3034453  60.4174812  60.8048518  43.5471780  64.3291959
  60.8452663  43.8186631  63.5011739  61.3643042  44.0713688  64.7449747
  60.8931864  43.6647535  64.2683847  66.7538690  36.5285733  54.7832545
  67.1383843  36.3093440  55.5349090  66.5050311  37.3548678  54.9133621
  66.7740763  36.6183879  54.9133621  68.4957347  41.7855866  62.1251441
  68.5696356  41.6231037  62.9793291  69.3126854  41.9746055  61.8811923
  68.6273706  41.7892608  62.2149467  62.2563104  42.1313728  59.1545885
  61.4301222  42.3775466  59.0280164  62.3175095  42.0525809  60.0207943
  62.1437271  42.1558677  59.2634829  64.4739128  28.1982669  60.1141325
  63.6061553  28.2705269  60.1798934  64.7614332  29.0004748  60.3029300
  64.3878876  28.3276817  60.1516092  67.0361933  44.7490609  56.8564915
  67.3260231  44.3579590  56.1324141  67.7665414  44.9307314  57.2970190
  67.1868817  44.7184422  56.8147722  64.9767849  46.7257991  59.9225065
  64.7568144  46.4355346  60.7151732  64.7562371  46.0672946  59.3942977
  64.9115443  46.5857699  59.9613973  63.8884796  38.8131308  62.1880766
  63.5998044  38.1868779  62.7226493  64.7568144  38.7551595  62.2545447
  63.9745048  38.7118852  62.2771721  67.1435804  48.0987381  58.7055757
  67.7959862  47.5663823  58.9346783  66.4461413  47.7456033  59.0923631
  67.1366522  47.9676904  58.7967925  64.0917069  40.4526559  58.1123131
  64.8463037  40.8339598  58.3258594  63.4987682  40.9037702  58.5669828
  64.1153783  40.5755386  58.2106010  65.4115296  41.6235120  63.4863247
  64.8896049  41.7635412  64.1715111  65.7989316  40.8645784  63.6765364
  65.3918997  41.5320644  63.6164323  62.4006480  31.6740929  57.5558201
  62.1131276  31.3042199  56.8190149  63.0876948  32.1435784  57.2941906
  62.4595377  31.6887898  57.4073277  71.6082301  43.3630579  57.4723815
  71.3668977  42.6298440  57.0650880  71.7883634  43.9117436  56.8190149
  71.5989925  43.3352970  57.3154038  66.8381621  38.6539139  58.8844738
  66.6424404  39.2613874  58.2905041  67.0615967  37.9607083  58.4036412
  66.8416262  38.6416665  58.7260818  65.2360151  35.5393877  59.0025606
  65.9582803  35.7035035  58.5429412  64.7568144  36.2603542  58.8964946
  65.2723882  35.6692107  58.9191220  59.9734674  32.4522141  58.4043482
  60.0750811  33.2548303  58.7324458  60.7690561  32.2509477  58.1066563
  60.1062580  32.5408040  58.4078838  60.7898407  32.5669319  66.1464604
  60.6483898  31.7153260  66.2709112  61.0738970  32.6097980  65.3226810
  60.8106253  32.4469069  66.0432228  70.9436999  34.4036410  60.2909092
  70.6971713  34.3232161  61.1245881  71.2722122  33.6189877  60.0971620
  70.9558242  34.2762675  60.3856615  61.5588712  30.4799667  69.4642054
  61.0230901  29.8680025  69.7802822  61.6206477  31.0547803  70.1175721
  61.4884344  30.4746595  69.6077481  69.1585329  44.0211542  58.6801199
  69.9235220  43.7521186  58.3583863  69.0563419  43.5361552  59.3971262
  69.2566824  43.9101106  58.7381027  67.1938098  32.2235951  65.2194435
  66.4034173  32.0427411  65.5411770  67.5898721  31.4462904  65.2024729
  67.1354975  32.0823412  65.2646983  68.3895023  37.3928350  63.8434136
  67.9657272  37.5932849  63.1073155  68.2139878  36.5457198  63.9558436
  68.3005903  37.2977131  63.7507827  63.6777468  37.8880401  59.2762109
  63.8342087  37.8227204  60.1318101  64.0178061  38.6628954  59.0640789
  63.7510702  37.9929599  59.3716703  70.2156612  37.2638285  58.1455472
  70.7572158  36.7608666  58.6094093  70.5303171  37.2103479  57.3344957
  70.3421009  37.1817706  58.0939284  68.3843062  42.6555636  55.4295500
  68.4535882  41.7970175  55.5688501  69.1631517  42.8727517  55.1014525
  68.5095912  42.5608500  55.4012658  60.2511729  35.0715352  59.5922876
  60.6310694  35.4899897  58.9283144  59.6767094  35.6528807  59.8991720
  60.2223054  35.2193210  59.5399617  67.7278590  37.3242492  52.1238259
  68.0171115  38.1007374  52.3981833  67.8150389  36.8131223  52.8252758
  67.7832846  37.3634410  52.2680756  63.8942531  36.6375756  64.2238371
  63.0530537  36.5379631  64.4317264  64.1032539  37.4071237  64.5752691
  63.8007223  36.7367800  64.3065686  61.3718098  34.2595293  62.0523121
  60.9774795  34.3338305  61.2773231  60.8158215  34.6453240  62.6031483
  61.2320910  34.3277068  62.0190781  67.7059196  34.5657156  63.4735968
  67.4022333  34.0113144  64.0746376  67.0038616  34.7449366  62.9864002
  67.5575405  34.5101938  63.4905674  66.7625293  31.8757675  58.0380670
  67.0385027  31.1576588  57.6258238  67.3623962  32.4742595  57.8301776
  66.8918557  31.8578046  57.9461431  70.2635813  29.5471193  56.3127265
  70.7179560  29.7181753  57.0375110  70.7375859  28.9339303  55.9125041
  70.4004133  29.4822078  56.3601027  63.7851339  39.0319519  65.6430004
  63.1939272  39.6729017  65.6133019  64.5472362  39.4557136  65.6161303
  63.8099599  39.1895357  65.6345151  64.1811961  30.1921516  66.3098021
  64.6413443  30.2660446  67.0473145  64.2268068  30.9902770  65.9597842
  64.2562517  30.3215663  66.3670778  67.6048833  36.2513727  57.4172272
  68.3490878  36.6388003  57.6555222  67.7509529  35.4071152  57.5812760
  67.7359418  36.1844200  57.4766242  70.5926709  31.8239200  63.3166192
  70.1186663  31.2980962  63.8271502  70.9644845  31.2768673  62.7481053
  70.5776598  31.6655197  63.3081339  60.9699739  33.8210707  68.6849737
  61.8325352  33.7206416  68.5987067  60.6391522  33.2405416  68.1235309
  61.0484936  33.7202334  68.5895143  64.3301525  32.6453156  65.3460156
  63.7054595  32.6571548  64.7386108  63.9947120  33.1213331  65.9951396
  64.1887017  32.7171673  65.3516724  64.5143274  30.9878275  51.4032841
  64.1656078  31.6398000  51.8664390  64.0339720  30.9735388  50.6756712
  64.3913518  31.0821328  51.3643932  61.0427201  40.7053616  66.7863920
  60.5127125  40.0146055  66.8358895  61.3152294  40.6963801  65.9576628
  61.0051923  40.6020748  66.6711336  63.5992271  34.2546304  67.5635024
  63.7585757  33.4989628  67.9686746  63.4185164  34.8037243  68.2175762
  63.5957629  34.2240118  67.7197730  56.3223043  37.3781380  64.1432268
  56.2166492  37.3328225  63.2784352  55.5723263  37.7235161  64.4246553
  56.1958646  37.4222288  64.0569598  65.0916775  28.8220704  64.0894868
  65.1315147  29.3229910  64.8029576  64.2666440  28.9131097  63.8200791
  64.9756301  28.9102520  64.1545407  66.5131139  35.3381213  66.3868767
  65.6823068  35.5055031  66.1804015  66.4582656  34.9617164  67.1717653
  66.3820554  35.3070945  66.4717295  64.8867183  33.6136805  56.9158885
  65.0270144  34.1109269  57.6187526  65.3849715  32.9123099  57.0573099
  64.9808263  33.5838784  57.0410464  64.9167405  34.4803916  54.2451462
  65.5512484  35.0764341  54.1800924  64.9993016  34.1807374  55.0597332
  65.0223956  34.5244824  54.3554548  66.4946388  30.4117891  54.2196904
  66.8162229  29.9320974  53.5656166  66.7573332  31.2217537  54.0287716
  66.5812413  30.4607789  54.0952396  61.4220393  36.6771757  57.5141008
  61.9312622  37.2736264  57.8952313  61.8954665  36.4097730  56.8317428
  61.5663768  36.7257572  57.4695531  70.3299766  26.2705185  59.9910960
  69.6868084  26.1202832  60.5596098  69.9899173  26.0247530  59.2260065
  70.1844843  26.2117308  59.9613975  63.7810925  33.3128015  60.3814188
  63.0622914  33.7292148  60.6487052  64.1523287  33.8782254  59.8305826
  63.7302856  33.4577297  60.3396995  69.5557499  32.3526015  55.7187568
  68.9622338  32.6743012  55.1672135  69.5932777  31.5067111  55.5108674
  69.4731888  32.2750343  55.6070339  61.5600259  32.6077568  71.4016780
  61.3902849  33.2678943  70.8564987  61.1166209  32.8184129  72.1229269
  61.4699592  32.7363550  71.4278409  65.4860078  30.8482066  60.4443514
  65.9617444  31.2099146  59.8093695  64.9848678  31.5038534  60.7243656
  65.4825437  30.9976255  60.3920255  58.4602323  35.5124434  66.6605270
  57.9129043  34.8425079  66.7786138  59.2494701  35.1454281  66.7248737
  58.4954507  35.3589420  66.6873970  67.5286731  32.9923266  53.8116898
  67.9085696  33.0102895  53.0268012  66.7879327  33.4377255  53.6907745
  67.4755569  33.0605040  53.6780466  57.2189293  34.7245241  63.8151293
  57.0411054  34.2721850  64.5406208  56.9308315  35.5271403  63.9989770
  57.1502246  34.7767799  63.9494796  68.3271485  39.8300772  55.2025688
  67.5182808  39.5067446  55.1558997  68.8346394  39.1233994  55.1353936
  68.2821152  39.6782088  55.1855982  58.9561762  37.2572965  60.9273052
  58.0907282  37.2458656  60.8155823  59.0560578  37.0703188  61.7744191
  58.8435929  37.2279026  61.0361996  67.5205902  29.2184794  56.4944529
  68.3421596  29.3883107  56.2526224  67.0575553  29.3732055  55.7710827
  67.5737064  29.2666527  56.3516173  61.9231793  40.9743972  64.1481766
  62.5276650  40.9339806  63.5195587  61.7159105  41.8215124  64.1785822
  61.9820690  41.0931975  64.0597882  57.1583075  39.9578590  64.0180689
  57.0607353  39.1474861  64.3270746  57.9411945  39.9370383  63.6326957
  57.2599211  39.8345680  64.0067552  70.9467258  47.9707449  58.4043482
  71.0483394  48.7733611  58.7324458  71.7423145  47.7694785  58.1066563
  71.0795164  48.0593348  58.4078838  53.5415696   5.4220653  45.7817088
  52.7898596   5.0436192  45.5533133  53.9901708   5.4539087  45.0335899
  53.4965363   5.3706260  45.6374591  58.5344948   7.7960291  47.1513747
  58.9184327   8.3647190  46.6118522  58.4704089   7.0709802  46.6719563
  58.5818375   7.7735755  47.0007610  54.9601192  10.3516635  49.4494717
  55.6038648  10.7929799  49.8390875  55.2857448   9.5470061  49.3624976
  55.1033021  10.2981829  49.4940194  49.8782822   6.3345003  48.9488401
  49.3950400   7.0595492  48.9247984  50.6906140   6.6321133  49.0598558
  49.9273569   6.4847357  48.9615680  52.7327019   6.8501179  49.1008681
  53.4347598   6.3353168  49.1581437  52.6524502   7.1775330  49.9055556
  52.8250779   6.8215405  49.2281473  59.8751020   6.9191119  53.8264627
  59.0766266   6.6790619  54.0838496  60.3237032   6.9705512  54.5731675
  59.8225631   6.8913510  53.9749552  49.5266758   4.9664603  51.2632006
  49.5670903   5.2379454  50.4351785  50.0861282   5.4906511  51.6789794
  49.6150104   5.0840358  51.2023894  55.7580173   6.1683432  43.7904962
  56.0478472   5.7772413  43.0664188  56.4883654   6.3500137  44.2310237
  55.9087058   6.1377246  43.7487769  53.6986089   8.1450814  46.8565111
  53.4786384   7.8548169  47.6491778  53.4780611   7.4865769  46.3283024
  53.6333683   8.0050523  46.8954020  55.8654045   9.5180204  45.6395804
  56.5178103   8.9856647  45.8686830  55.1679653   9.1648857  46.0263678
  55.8584763   9.3869727  45.7307971  54.6980022   6.7488723  53.5033149
  54.8469585   6.1891639  52.8506553  55.4780024   6.8280725  53.8865668
  54.8354115   6.6774289  53.4630098  57.2233322   6.9203366  54.7817640
  57.1476993   6.2512177  55.3368428  57.1523181   7.6221154  55.2958306
  57.2013929   6.9248273  54.9394488  56.6124957  10.3271686  53.2395641
  57.1020887   9.6282475  53.0571305  56.0409189  10.0295556  53.8271698
  56.6009486  10.1797910  53.2996681  57.6904086   7.7854147  51.5792774
  57.4669741   7.0272977  51.9476800  57.2013929   7.8152168  50.8573213
  57.5847535   7.6776372  51.5269515  56.3382543   8.0054605  49.0329858
  55.9242942   7.3428736  48.6433700  57.0229917   8.1532464  48.5125552
  56.3780915   7.9295264  48.8986355  59.7047837   7.1644691  49.7853475
  59.3064120   7.2746961  49.0174295  59.0899057   7.3726757  50.3680035
  59.5546727   7.2118259  49.7584774  53.3037013   8.4463687  51.4343204
  53.6183572   9.2600075  51.4420986  53.7130426   8.0613906  52.1025363
  53.4105111   8.5092389  51.5347296  70.1307140  11.4043243  50.0179857
  69.2745036  11.5651742  50.0688974  70.1774794  10.5335307  50.0384918
  70.0106252  11.2994045  50.0285923  64.5148280  20.9405961  45.7817088
  63.7631179  20.5621500  45.5533133  64.9634292  20.9724395  45.0335899
  64.4697947  20.8891568  45.6374591  69.9673240  21.3631331  41.2102636
  69.6324608  22.0408252  40.7746858  70.4800110  20.9736642  40.6219507
  69.9938821  21.4055909  41.0589427  69.5077531  23.3145599  47.1513747
  69.8916910  23.8832498  46.6118522  69.4436672  22.5895110  46.6719563
  69.5550958  23.2921063  47.0007610  66.0933036  20.9524353  48.0479861
  66.1943399  20.1424707  48.3576989  65.4974781  20.8581300  47.4179539
  66.0205575  20.8189381  48.0006099  65.9333776  25.8701943  49.4494717
  66.5771231  26.3115107  49.8390875  66.2590031  25.0655369  49.3624976
  66.0765604  25.8167137  49.4940194  59.2898080  16.9744640  47.6732195
  59.0548265  16.1412292  47.5664463  59.4283721  17.2549306  46.8593396
  59.2753743  16.8928143  47.5374550  61.5888168   9.1430371  50.5716502
  60.9693200   8.5523018  50.4026517  61.4872031   9.7341806  49.9380825
  61.4825843   9.1434453  50.4521492  66.6354355  18.8813917  44.8214579
  66.9570197  19.4219125  44.2175887  67.2826452  18.3110689  44.9536868
  66.7780411  18.8773093  44.7521614  68.6856063  10.8829912  44.9048965
  69.3836228  11.0618040  45.3970429  69.0008396  10.3600252  44.2819355
  68.8351401  10.8323684  44.8850976  61.3157301  12.6882652  52.8160071
  61.1915998  13.2745098  53.4509890  61.9675585  12.1942848  53.1172346
  61.3930950  12.7021457  52.9546001  68.8743999  17.2700357  44.8928757
  69.3137634  16.6617458  45.3383530  68.7248662  16.8907731  44.1214222
  68.9165465  17.1238829  44.8447924  66.3415642  15.8644369  52.0947582
  66.9864644  15.3716812  51.7758531  66.5817419  16.0069156  52.9213661
  66.4726227  15.8121811  52.1697116  68.8801733  18.7099275  51.7454475
  69.1624976  17.9150681  51.5241231  69.6087894  19.1879863  51.7659536
  69.0291297  18.6633872  51.7157490  65.2971376  16.1375550  42.1464729
  64.7128592  16.6425581  42.5530593  64.8941472  15.9117937  41.4061321
  65.1510680  16.1783798  42.0969754  60.8515405  21.8530311  48.9488401
  60.3682983  22.5780800  48.9247984  61.6638723  22.1506441  49.0598558
  60.9006153  22.0032664  48.9615680  66.9229559  20.6462491  51.5538215
  66.4056501  20.2869906  50.9499523  67.6203950  20.1224666  51.5644281
  66.9495140  20.5160179  51.4668474  68.1463611  20.3788465  56.4972050
  67.5834446  19.9661075  57.0211712  68.9084634  20.3041371  56.9165194
  68.1758060  20.3065866  56.6365051  69.7548591  12.3841202  40.6233650
  69.9944595  12.5919185  39.8108993  70.0764432  11.5798710  40.7322594
  69.8385749  12.2955303  40.5194203  63.7059602  22.3686487  49.1008681
  64.4080182  21.8538476  49.1581437  63.6257085  22.6960638  49.9055556
  63.7983363  22.3400713  49.2281473  63.0310378  18.5592839  48.6094289
  63.8699277  18.7915771  48.6568050  63.0622147  17.6897150  48.5401324
  63.1592095  18.4649785  48.6058933  63.6563081  18.9793714  52.9107594
  64.1961306  18.8364845  53.5810966  62.9733027  19.3790465  53.2791620
  63.6355235  19.0173385  53.0642016  59.0600226  15.1994005  53.0642016
  58.7938641  14.3833121  53.2233006  59.0738790  15.2447160  52.1937531
  59.0224948  15.0850909  52.9595498  62.9657973   9.9979089  39.6793774
  62.2516150   9.7117269  40.0916206  63.4501942  10.3375715  40.3200161
  62.9317336  10.0060739  39.8349409  70.8483604  22.4376427  53.8264627
  70.0498849  22.1975927  54.0838496  71.2969615  22.4890819  54.5731675
  70.7958215  22.4098818  53.9749552  70.1405291  18.5009043  40.0555582
  70.5556439  18.1694067  39.3640078  69.3097220  18.2677945  39.9275719
  70.0793299  18.4180299  39.9346429  59.4693640  15.9852784  50.3453760
  59.2869213  15.9599670  49.4926052  60.2043308  16.4551722  50.3842669
  59.5507703  16.0514146  50.2251678  59.4364550  12.8646285  50.4952827
  60.0138052  12.7282735  51.1345072  58.7378612  12.4082069  50.7498411
  59.4185571  12.7768551  50.6275116  66.1931852  14.5180340  48.7091310
  65.9351096  13.6852075  48.6822609  66.2480335  14.7437953  47.8683810
  66.1631630  14.4278112  48.5811446  65.1666564  12.0718103  49.1956204
  64.5916155  12.2310271  49.8320165  64.7902240  11.4353512  48.7324655
  65.0269377  12.0015916  49.2210763  54.9123383  11.7158178  47.2100645
  54.9983635  11.3390046  47.9914175  55.5399181  11.3418623  46.7320603
  55.0179934  11.6043660  47.2546122  69.9378791  14.7740057  42.2525390
  70.7519430  15.0654950  42.1408161  69.8737932  14.1199919  41.6783683
  70.0481530  14.7205251  42.1514227  65.8086699  18.2461574  47.3797702
  66.4460646  18.0073322  47.9249495  66.2341771  18.4498733  46.6450863
  65.9662866  18.2412584  47.3514859  60.4999342  20.4849911  51.2632006
  60.5403487  20.7564762  50.4351785  61.0593866  21.0091819  51.6789794
  60.5882688  20.6025666  51.2023894  66.4489514  13.4663864  41.7172591
  66.8334667  13.2471571  42.4689136  66.2001135  14.2926809  41.8473668
  66.4691587  13.5562010  41.8473668  68.1908171  18.7233997  49.0591488
  68.2647180  18.5609169  49.9133338  69.0077678  18.9124186  48.8151970
  68.3224530  18.7270739  49.1489514  61.9513928  19.0691860  46.0885932
  61.1252046  19.3153597  45.9620211  62.0125919  18.9903940  46.9547990
  61.8388095  19.0936809  46.1974876  66.7312757  21.6868740  43.7904962
  67.0211055  21.2957721  43.0664188  67.4616238  21.8685445  44.2310237
  66.8819641  21.6562554  43.7487769  67.3207502  16.4886486  54.8758092
  66.8219196  17.2002253  54.9542981  68.1307726  16.8087152  54.8376255
  67.3663609  16.6413334  54.8814661  64.6718673  23.6636122  46.8565111
  64.4518968  23.3733477  47.6491778  64.4513195  23.0051077  46.3283024
  64.6066267  23.5235831  46.8954020  63.5835620  15.7509439  49.1220813
  63.2948868  15.1246910  49.6566540  64.4518968  15.6929726  49.1885493
  63.6695872  15.6496983  49.2111768  66.8386628  25.0365512  45.6395804
  67.4910686  24.5041955  45.8686830  66.1412237  24.6834165  46.0263678
  66.8317346  24.9055035  45.7307971  63.7867893  17.3904690  45.0463178
  64.5413861  17.7717729  45.2598641  63.1938506  17.8415833  45.5009875
  63.8104607  17.5133517  45.1446056  65.1066120  18.5613251  50.4203293
  64.5846873  18.7013543  51.1055158  65.4940140  17.8023915  50.6105411
  65.0869821  18.4698775  50.5504370  62.0957304   8.6119060  44.4898248
  61.8082100   8.2420330  43.7530195  62.7827772   9.0813915  44.2281953
  62.1546201   8.6266029  44.3413324  71.3033125  20.3008710  44.4063862
  71.0619801  19.5676571  43.9990927  71.4834458  20.8495567  43.7530196
  71.2940749  20.2731102  44.2494085  66.5332445  15.5917270  45.8184784
  66.3375228  16.1992005  45.2245087  66.7566791  14.8985214  45.3376458
  66.5367086  15.5794796  45.6600865  64.9310975  12.4772008  45.9365653
  65.6533627  12.6413166  45.4769459  64.4518968  13.1981673  45.8304993
  64.9674706  12.6070238  45.8531267  62.5818592  14.8830081  55.0419793
  63.0939689  15.1614334  54.3928552  62.2954935  15.6219375  55.4082606
  62.6153455  15.0332434  55.0009671  59.6685498   9.3900272  45.3383529
  59.7701635  10.1926434  45.6664505  60.4641385   9.1887608  45.0406610
  59.8013404   9.4786171  45.3418885  60.4849230   9.5047451  53.0804651
  60.3434722   8.6531391  53.2049159  60.7689794   9.5476111  52.2566857
  60.5057077   9.3847201  52.9772275  70.6387823  11.3414541  47.2249139
  70.3922537  11.2610292  48.0585928  70.9672946  10.5568009  47.0311667
  70.6509066  11.2140806  47.3196662  66.5984850  14.0771259  56.6372122
  66.7428226  14.6572468  56.0015232  66.9460499  14.4547556  57.3421977
  66.6712311  14.2191963  56.6471117  68.7704767  13.2761428  54.4197254
  68.0228082  13.4692442  54.0145532  68.9246293  12.4506647  54.1821375
  68.6827195  13.1826539  54.3242660  65.6712605  22.2674031  53.5033149
  65.8202169  21.7076947  52.8506553  66.4512607  22.3466033  53.8865668
  65.8086699  22.1959597  53.4630098  68.1965906  22.4388674  54.7817640
  68.1209577  21.7697485  55.3368428  68.1255765  23.1406462  55.2958306
  68.1746513  22.4433581  54.9394488  68.8536153  20.9589673  45.6141246
  69.6186044  20.6899317  45.2923910  68.7514243  20.4739683  46.3311309
  68.9517648  20.8479238  45.6721073  71.3754813  17.9901857  37.5941195
  72.1427798  18.0501982  37.1847047  70.9286122  17.4182298  37.1097514
  71.4228240  17.9138432  37.4618905  68.0845847  14.3306481  50.7774183
  67.6608096  14.5310980  50.0413202  67.9090702  13.4835329  50.8898483
  67.9956727  14.2355262  50.6847873  67.5857540  25.8456994  53.2395641
  68.0753470  25.1467783  53.0571305  67.0141772  25.5480864  53.8271698
  67.5742070  25.6983218  53.2996681  63.3728292  14.8258532  46.2102156
  63.5292911  14.7605335  47.0658148  63.7128885  15.6007085  45.9980835
  63.4461526  14.9307730  46.3056750  69.9107436  14.2016416  45.0795519
  70.4522982  13.6986797  45.5434140  70.2253995  14.1481611  44.2685004
  70.0371833  14.1195837  45.0279331  68.0793886  19.5933767  42.3635547
  68.1486706  18.7348306  42.5028547  68.8582341  19.8105648  42.0354572
  68.2046736  19.4986631  42.3352704  59.9462553  12.0093483  46.5262923
  60.3261518  12.4278028  45.8623190  59.3717918  12.5906938  46.8331766
  59.9173878  12.1571342  46.4739664  67.4229414  14.2620623  39.0578305
  67.7121938  15.0385505  39.3321880  67.5101213  13.7509354  39.7592805
  67.4783670  14.3012541  39.2020803  63.5893355  13.5753888  51.1578417
  62.7481361  13.4757762  51.3657311  63.7983363  14.3449368  51.5092738
  63.4958047  13.6745931  51.2405732  61.0668922  11.1973424  48.9863168
  60.6725619  11.2716436  48.2113278  60.5109038  11.5831371  49.5371530
  60.9271734  11.2655199  48.9530828  67.4010019  11.5035287  50.4076015
  67.0973157  10.9491275  51.0086423  66.6989440  11.6827497  49.9204049
  67.2526229  11.4480069  50.4245721  65.4628371  18.7185007  55.1148113
  65.3548725  18.7287070  55.9810171  65.6724152  19.5439788  54.9253067
  65.4778482  18.8426082  55.2152204  63.4802163  15.9697650  52.5770050
  62.8890096  16.6107148  52.5473065  64.2423186  16.3935267  52.5501350
  63.5050423  16.1273488  52.5685198  67.2999657  13.1891858  44.3512319
  68.0441702  13.5766135  44.5895269  67.4460353  12.3449284  44.5152807
  67.4310242  13.1222331  44.4106289  60.6650563  10.7588838  55.6189784
  61.5276176  10.6584547  55.5327114  60.3342346  10.1783548  55.0575356
  60.7435759  10.6580465  55.5235190  64.0252349   9.5831287  52.2800202
  63.4005419   9.5949679  51.6726155  63.6897944  10.0591462  52.9291443
  63.8837841   9.6549804  52.2856771  60.7378025  17.6431747  53.7203967
  60.2077949  16.9524186  53.7698941  61.0103118  17.6341933  52.8916675
  60.7002747  17.5398879  53.6051383  70.9384270  15.0854992  53.6942338
  70.3241263  14.5413042  53.9890973  71.4551555  14.5719228  53.2148154
  70.9239933  14.9291401  53.6666567  70.1780567  16.1559262  51.4286637
  69.7508175  15.5308981  50.9952072  70.1705512  15.8734184  52.2545644
  70.1139709  16.0212043  51.4866464  63.2943094  11.1924435  54.4975071
  63.4536581  10.4367759  54.9026793  63.1135988  11.7415375  55.1515808
  63.2908453  11.1618249  54.6537777  56.0173867  14.3159512  51.0772315
  55.9117316  14.2706356  50.2124399  55.2674087  14.6613292  51.3586600
  55.8909470  14.3600420  50.9909645  66.2081963  12.2759345  53.3208814
  65.3773892  12.4433163  53.1144062  66.1533480  11.8995295  54.1057699
  66.0771378  12.2449076  53.4057342  64.5818006  10.5514936  43.8498932
  64.7220968  11.0487400  44.5527573  65.0800539   9.8501231  43.9913146
  64.6759087  10.5216915  43.9750511  64.6118229  11.4182047  41.1791509
  65.2463308  12.0142472  41.1140970  64.6943840  11.1185505  41.9937379
  64.7174780  11.4622955  41.2894595  69.4194184  18.3714897  54.6735767
  68.9119276  18.9250744  55.1176397  69.1220831  18.4323187  53.8554541
  69.2999069  18.4621208  54.6184223  61.1171217  13.6149888  44.4481055
  61.6263446  14.2114395  44.8292360  61.5905489  13.3475862  43.7657474
  61.2614592  13.6635703  44.4035577  68.6636670  23.3039455  51.5792774
  68.4402324  22.5458284  51.9476800  68.1746513  23.3337476  50.8573213
  68.5580119  23.1961680  51.5269515  63.4761748  10.2506146  47.3154235
  62.7573738  10.6670279  47.5827099  63.8474111  10.8160385  46.7645873
  63.4253680  10.3955428  47.2737042  67.3115127  23.5239913  49.0329858
  66.8975525  22.8614043  48.6433700  67.9962501  23.6717772  48.5125552
  67.3513498  23.4480571  48.8986355  70.6780421  22.6829999  49.7853475
  70.2796704  22.7932269  49.0174295  70.0631640  22.8912065  50.3680035
  70.5279310  22.7303567  49.7584774  61.2551083   9.5455699  58.3356827
  61.0853673  10.2057074  57.7905033  60.8117032   9.7562260  59.0569316
  61.1650416   9.6741681  58.3618456  58.1553147  12.4502565  53.5945317
  57.6079867  11.7803210  53.7126185  58.9445525  12.0832413  53.6588784
  58.1905331  12.2967551  53.6214017  67.2237555   9.9301397  40.7456944
  67.6036520   9.9481026  39.9608059  66.4830151  10.3755386  40.6247792
  67.1706393   9.9983172  40.6120513  56.9140117  11.6623373  50.7491340
  56.7361878  11.2099982  51.4746255  56.6259139  12.4649534  50.9329817
  56.8453070  11.7145930  50.8834843  68.0222309  16.7678903  42.1365734
  67.2133632  16.4445577  42.0899044  68.5297218  16.0612125  42.0693983
  67.9771976  16.6160220  42.1196029  58.6512586  14.1951096  47.8613099
  57.7858106  14.1836787  47.7495870  58.7511402  14.0081319  48.7084238
  58.5386753  14.1657158  47.9702043  64.2769596  23.9648995  51.4343204
  64.5916155  24.7785383  51.4420986  64.6863010  23.5799214  52.1025363
  64.3837694  24.0277697  51.5347296  71.2294116  19.3819042  49.0047016
  71.7005294  20.0959304  49.1737001  71.5654294  18.7817792  49.5406886
  71.3489231  19.3990506  49.1079392  61.6182616  17.9122103  51.0821813
  62.2227474  17.8717938  50.4535633  61.4109929  18.7593255  51.1125869
  61.6771514  18.0310106  50.9937929  56.8533899  16.8956721  50.9520736
  56.7558177  16.0852992  51.2610792  57.6362768  16.8748514  50.5667004
  56.9550035  16.7723811  50.9407599  70.2630664  32.4929948  47.6732195
  70.0280848  31.6597600  47.5664463  70.4016305  32.7734614  46.8593396
  70.2486326  32.4113451  47.5374550  70.0332809  30.7179313  53.0642016
  69.7671225  29.9018429  53.2233006  70.0471374  30.7632468  52.1937531
  69.9957532  30.6036217  52.9595498  70.4426223  31.5038092  50.3453760
  70.2601796  31.4784978  49.4926052  71.1775892  31.9737030  50.3842669
  70.5240287  31.5699454  50.2251678  70.4097133  28.3831593  50.4952827
  70.9870636  28.2468043  51.1345072  69.7111195  27.9267377  50.7498411
  70.3918155  28.2953859  50.6275116  65.8855967  27.2343486  47.2100645
  65.9716218  26.8575354  47.9914175  66.5131764  26.8603931  46.7320603
  65.9912518  27.1228968  47.2546122  71.4731925  36.0035219  51.2632006
  71.5136071  36.2750070  50.4351785  72.0326449  36.5277127  51.6789794
  71.5615271  36.1210974  51.2023894  70.6418082  24.9085580  45.3383529
  70.7434218  25.7111742  45.6664505  71.4373969  24.7072916  45.0406610
  70.7745988  24.9971479  45.3418885  71.4581814  25.0232759  53.0804651
  71.3167306  24.1716699  53.2049159  71.7422377  25.0661419  52.2566857
  71.4789660  24.9032509  52.9772275  70.9195137  27.5278791  46.5262923
  71.2994102  27.9463336  45.8623190  70.3450501  28.1092246  46.8331766
  70.8906462  27.6756650  46.4739664  72.0401505  26.7158732  48.9863168
  71.6458203  26.7901744  48.2113278  71.4841622  27.1016679  49.5371530
  71.9004318  26.7840507  48.9530828  71.7110608  33.1617055  53.7203967
  71.1810533  32.4709494  53.7698941  71.9835702  33.1527241  52.8916675
  71.6735331  33.0584187  53.6051383  66.9906450  29.8344819  51.0772315
  66.8849900  29.7891664  50.2124399  66.2406670  30.1798600  51.3586600
  66.8642053  29.8785728  50.9909645  69.1285731  27.9687873  53.5945317
  68.5812450  27.2988518  53.7126185  69.9178109  27.6017721  53.6588784
  69.1637914  27.8152859  53.6214017  67.8872700  27.1808681  50.7491340
  67.7094461  26.7285290  51.4746255  67.5991722  27.9834842  50.9329817
  67.8185653  27.2331238  50.8834843  69.6245170  29.7136404  47.8613099
  68.7590689  29.7022095  47.7495870  69.7243986  29.5266627  48.7084238
  69.5119337  29.6842466  47.9702043  67.8266482  32.4142029  50.9520736
  67.7290760  31.6038300  51.2610792  68.6095352  32.3933822  50.5667004
  67.9282619  32.2909119  50.9407599  71.1682749  12.9413350  38.1972053
  71.2086895  13.2128201  37.3691832  71.7277273  13.4655258  38.6129840
  71.2566095  13.0589105  38.1363941  16.0974207  36.1771108  67.0687902
  15.7625576  36.8548029  66.6332124  16.6101078  35.7876419  66.4804774
  16.1239788  36.2195686  66.9174694  20.8824997  29.7059671  69.3930503
  20.7664523  30.4567357  69.8222641  21.6780884  29.4483625  69.6426590
  20.9829587  29.7794518  69.4934595  18.6054303  30.4367316  67.7044793
  18.5205598  31.2928282  67.8494362  19.0938686  30.1611640  68.3726952
  18.6643200  30.5224637  67.8246874  16.2706258  33.3148820  65.9140849
  16.6857407  32.9833844  65.2225345  15.4398188  33.0817722  65.7860985
  16.2094267  33.2320076  65.7931696  18.9639648  29.5659379  65.1002050
  18.8819811  29.6361567  65.9657037  19.6019369  30.1289123  64.9085791
  19.0459486  29.6598351  65.1992000  16.0679759  29.5879834  68.1110657
  16.8820397  29.8794727  67.9993428  16.0038900  28.9339696  67.5368950
  16.1782498  29.5345028  68.0099494  12.8613725  36.5008517  69.6490228
  13.1512023  36.1097498  68.9249455  13.5917205  36.6825222  70.0895504
  13.0120609  36.4702331  69.6073035  12.9687596  39.8505289  71.4981071
  13.6211654  39.3181732  71.7272097  12.2713205  39.4973942  71.8848945
  12.9618314  39.7194812  71.5893238  20.9627514  32.1709703  70.8412050
  21.5285547  32.8302913  70.7570593  20.3155418  32.5159401  71.3128452
  20.9506271  32.3191645  70.8984806  17.4334092  35.1148487  70.2649129
  17.1920768  34.3816348  69.8576194  17.6135425  35.6635344  69.6115462
  17.4241716  35.0870879  70.1079352  22.1590212  32.2215931  67.6337686
  21.7797021  31.4353069  67.6266976  21.4956457  32.7702788  67.4909331
  22.0048687  32.1860755  67.6118483  20.4050311  34.4661422  67.9689372
  20.4870148  35.2728408  67.6450823  20.8900053  34.4857381  68.6930146
  20.4887469  34.5882084  68.0276271  14.2094853  34.4073544  68.2220814
  14.2787674  33.5488083  68.3613814  14.9883309  34.6245425  67.8939838
  14.3347704  34.3126408  68.1937971  18.6002341  36.8311246  72.4357307
  18.2082133  36.5277961  71.7180173  18.7555413  37.6680336  72.2462261
  18.5655931  36.9095082  72.3013804  13.5530381  29.0760400  64.9163572
  13.8422906  29.8525282  65.1907146  13.6402180  28.5649131  65.6178071
  13.6084637  29.1152318  65.0606070  17.8999083  33.0397227  68.3026916
  18.6233282  33.5055340  68.1591489  17.4599674  33.1070836  67.5524513
  17.9414775  33.1181063  68.1711697  18.1602932  37.1017932  68.4624977
  17.4432242  36.9278794  67.9972214  18.8109670  36.8670504  67.9300463
  18.1504783  37.0413724  68.3154195  24.5423231  32.0721742  69.0281832
  24.9256837  32.8213098  69.2579929  23.7467344  32.3187562  68.7693821
  24.4817013  32.2191436  69.0239406  14.1523277  31.5818680  67.9951001
  13.3434599  31.2585354  67.9484311  14.6598186  30.8751902  67.9279250
  14.1072943  31.4299997  67.9781296  34.0341007  42.6492677  71.1212193
  34.0035011  43.5037314  71.2930463  34.6322355  42.3487970  71.6798337
  34.1178164  42.7309174  71.2286996  27.2340691  41.7368328  75.8765124
  26.3778587  41.8976827  75.9274240  27.2808345  40.8660392  75.8970185
  27.1139803  41.6319130  75.8871190  21.6181831  51.2731046  71.6402355
  20.8664731  50.8946584  71.4118400  22.0667843  51.3049480  70.8921166
  21.5731498  51.2216653  71.4959857  27.0706791  51.6956416  67.0687902
  26.7358159  52.3733337  66.6332124  27.5833661  51.3061727  66.4804774
  27.0972372  51.7380994  66.9174694  26.6111082  53.6470684  73.0099014
  26.9950462  54.2157583  72.4703789  26.5470223  52.9220195  72.5304830
  26.6584509  53.6246148  72.8592876  23.1966587  51.2849438  73.9065128
  23.2976950  50.4749792  74.2162256  22.6008332  51.1906385  73.2764806
  23.1239126  51.1514466  73.8591366  31.8557581  45.2244979  69.3930503
  31.7397107  45.9752665  69.8222641  32.6513468  44.9668933  69.6426590
  31.9562170  45.2979826  69.4934595  23.7387907  49.2139002  70.6799846
  24.0603748  49.7544210  70.0761154  24.3860003  48.6435774  70.8122135
  23.8813962  49.2098177  70.6106881  25.7889615  41.2154997  70.7634232
  26.4869779  41.3943125  71.2555695  26.1041947  40.6925337  70.1404622
  25.9384952  41.1648769  70.7436242  25.9777550  47.6025442  70.7514024
  26.4171185  46.9942543  71.1968796  25.8282213  47.2232816  69.9799489
  26.0199016  47.4563913  70.7033191  23.4449193  46.1969454  77.9532849
  24.0898196  45.7041897  77.6343798  23.6850970  46.3394241  78.7798927
  23.5759778  46.1446896  78.0282382  29.5786887  45.9552624  67.7044793
  29.4938182  46.8113590  67.8494362  30.0671270  45.6796948  68.3726952
  29.6375784  46.0409945  67.8246874  31.1692886  32.5732917  73.0905117
  30.8546327  33.2636395  73.5225540  30.6519828  32.5177699  72.3890618
  31.0457356  32.6667805  73.0502067  30.5105320  42.5737418  69.2042528
  29.9816791  42.7897051  69.8639834  31.0330340  43.2673556  69.1243497
  30.5093773  42.7080555  69.2898127  22.4004928  46.4700635  68.0049996
  21.8162143  46.9750666  68.4115860  21.9975023  46.2443021  67.2646588
  22.2544231  46.5108883  67.9555021  26.8582142  42.7166287  66.4818917
  27.0978146  42.9244270  65.6694260  27.1797983  41.9123795  66.5907861
  26.9419300  42.6280388  66.3779470  22.1672432  34.6459682  70.3278455
  22.9218400  35.0137999  70.0895505  21.9899967  35.0199237  71.0957634
  22.2526911  34.7557870  70.4063343  20.5229497  37.0530001  67.0256568
  20.3405070  37.2701882  66.1997560  21.3855110  37.1669014  67.0815182
  20.6234086  37.1019899  66.9111055  20.1343929  48.8917924  74.4679555
  20.9732828  49.1240856  74.5153317  20.1655698  48.0222235  74.3986591
  20.2625646  48.7974870  74.4644200  26.2029216  34.0556412  70.0605591
  26.9315377  33.8772367  69.6143748  26.2924109  34.8974492  70.2712770
  26.3235878  34.1540290  70.0259109  30.1837517  44.9909799  73.9637885
  30.9395032  45.4241314  74.0026794  30.2899841  44.3414569  74.5372521
  30.3107687  44.9587283  74.0535911  33.1415171  35.8596904  76.9569716
  33.7841079  35.9295009  77.5431632  33.3938192  35.1926127  76.4549258
  33.2737303  35.7723253  76.9696995  20.0691524  40.3304174  65.5379041
  19.3549701  40.0442353  65.9501473  20.5535493  40.6700800  66.1785428
  20.0350887  40.3385824  65.6934676  36.3562034  45.5363997  73.6059926
  37.0178468  44.9754665  73.5055834  35.7153446  45.0416027  73.9312617
  36.3590902  45.3800406  73.6392266  27.2438842  48.8334128  65.9140849
  27.6589990  48.5019152  65.2225345  26.4130771  48.6003030  65.7860985
  27.1826851  48.7505384  65.7931696  32.6426865  46.5529379  73.3471914
  32.8782454  46.6974578  72.5198765  32.7916428  47.3171787  73.7403428
  32.6992668  46.6868433  73.2835518  34.4717322  45.3931045  71.1841518
  34.8025539  45.9258685  70.5781613  35.0450410  45.4469933  71.8403469
  34.6051001  45.4800614  71.1919300  29.6849211  43.2395948  71.8665098
  29.7796065  43.9785242  72.3204724  29.0608054  42.8113423  72.2999663
  29.6058241  43.2857268  71.9973246  29.9372232  45.0844687  65.1002050
  29.8552395  45.1546874  65.9657037  30.5751952  45.6474431  64.9085791
  30.0192069  45.1783658  65.1992000  23.2965403  44.8505425  74.5676577
  23.0384647  44.0177160  74.5407876  23.3513886  45.0763038  73.7269077
  23.2665181  44.7603197  74.4396713  28.3766453  36.9533876  74.6680669
  27.6722780  36.4643061  74.8264588  28.4251428  36.9656350  73.7969114
  28.2796505  36.8823524  74.5620009  22.2700115  42.4043188  75.0541471
  21.6949707  42.5635356  75.6905432  21.8935792  41.7678597  74.5909922
  22.1302928  42.3341001  75.0796030  35.5796673  40.6341542  72.6881680
  35.3233238  39.8221483  72.4979563  36.4225987  40.6419109  72.4611867
  35.6662698  40.5153539  72.6266497  27.0412342  45.1065142  68.1110657
  27.8552981  45.3980034  67.9993428  26.9771483  44.4525004  67.5368950
  27.1515081  45.0530336  68.0099494  22.9120250  48.5786659  73.2382969
  23.5494197  48.3398407  73.7834762  23.3375322  48.7823818  72.5036129
  23.0696417  48.5737669  73.2100126  25.2941722  49.0559082  74.9176755
  25.3680731  48.8934254  75.7718605  26.1111229  49.2449271  74.6737237
  25.4258081  49.0595824  75.0074781  19.0547479  49.4016945  71.9471199
  18.2285597  49.6478682  71.8205477  19.1159470  49.3229025  72.8133257
  18.9421646  49.4261894  72.0560143  21.2723503  35.4685886  72.9066639
  20.4045928  35.5408485  72.9724248  21.5598707  36.2707964  73.0954614
  21.1863251  35.5980033  72.9441405  23.8346308  52.0193825  69.6490228
  24.1244607  51.6282806  68.9249455  24.5649789  52.2010530  70.0895504
  23.9853192  51.9887639  69.6073035  20.6869171  46.0834524  74.9806080
  20.3982420  45.4571995  75.5151807  21.5552519  46.0254811  75.0470760
  20.7729423  45.9822068  75.0697034  31.4747069  41.2269307  75.2988062
  31.1311835  40.5059642  75.6495311  31.5740111  41.0183158  74.4566420
  31.4389112  41.0893510  75.2259742  23.9420179  55.3690597  71.4981071
  24.5944237  54.8367039  71.7272097  23.2445788  55.0159249  71.8848945
  23.9350897  55.2380120  71.5893238  20.8901444  47.7229775  70.9048445
  21.6447412  48.1042814  71.1183907  20.2972057  48.1740918  71.3595141
  20.9138158  47.8458602  71.0031323  31.9360098  47.6895011  70.8412050
  32.5018130  48.3488221  70.7570593  31.2888001  48.0344709  71.3128452
  31.9238854  47.8376952  70.8984806  19.1990855  38.9444145  70.3483515
  18.9115651  38.5745415  69.6115462  19.8861323  39.4139000  70.0867220
  19.2579752  38.9591114  70.1998591  28.4066676  50.6333795  70.2649129
  28.1653352  49.9001656  69.8576194  28.5868009  51.1820652  69.6115462
  28.3974300  50.6056187  70.1079352  23.6365996  45.9242355  71.6770051
  23.4408779  46.5317090  71.0830354  23.8600342  45.2310299  71.1961725
  23.6400638  45.9119881  71.5186132  22.0344526  42.8097093  71.7950920
  22.7567178  42.9738251  71.3354726  21.5552519  43.5306758  71.6890259
  22.0708257  42.9395323  71.7116534  29.9938034  39.1460892  77.1747605
  29.1549135  39.1722171  76.9385868  30.0642401  39.7931627  77.7552951
  29.8806428  39.2457018  77.2256721  28.4407312  36.0446269  71.9075221
  29.1433665  35.8454017  71.4295179  28.1751501  35.2722211  72.2144064
  28.5053945  35.9009235  71.8820662  33.8695558  44.3528879  74.4608846
  33.7829532  44.5084305  75.3143625  33.4146038  44.9966954  74.0868251
  33.7898815  44.4704634  74.5315953  16.7719050  39.7225357  71.1968796
  16.8735186  40.5251519  71.5249771  17.5674936  39.5212693  70.8991877
  16.9046955  39.8111256  71.2004151  27.7421374  41.6739626  73.0834406
  27.4956088  41.5935377  73.9171195  28.0706497  40.8893094  72.8896933
  27.7542618  41.5465891  73.1781929  33.1322796  47.7401239  67.6337686
  32.7529604  46.9538377  67.6266976  32.4689041  48.2888096  67.4909331
  32.9781270  47.7046063  67.6118483  25.9569704  51.2914758  71.4726513
  26.7219595  51.0224402  71.1509177  25.8547794  50.8064768  72.1896575
  26.0551199  51.1804323  71.5306340  28.4788364  48.3226942  63.4526462
  29.2461349  48.3827067  63.0432314  28.0319673  47.7507383  62.9682780
  28.5261792  48.2463517  63.3204172  29.3766160  47.1281598  75.7379194
  28.7011162  46.8966830  76.2392581  29.3858536  46.5202780  75.1121299
  29.2784664  47.0040523  75.7195346  31.3782894  49.9846730  67.9689372
  31.4602732  50.7913716  67.6450823  31.8632637  50.0042689  68.6930146
  31.4620052  50.1067392  68.0276271  25.1879398  44.6631566  76.6359450
  24.7641647  44.8636065  75.8998468  25.0124253  43.8160414  76.7483750
  25.0990278  44.5680347  76.5433140  20.4761843  45.1583617  72.0687423
  20.6326462  45.0930420  72.9243415  20.8162436  45.9332170  71.8566102
  20.5495078  45.2632815  72.1642017  27.0140987  44.5341501  70.9380786
  27.5556533  44.0311882  71.4019406  27.3287546  44.4806695  70.1270271
  27.1405384  44.4520922  70.8864598  25.1827437  49.9258852  68.2220814
  25.2520257  49.0673391  68.3613814  25.9615892  50.1430733  67.8939838
  25.3080287  49.8311716  68.1937971  29.5734925  52.3496554  72.4357307
  29.1814716  52.0463269  71.7180173  29.7287997  53.1865644  72.2462261
  29.5388514  52.4280390  72.3013804  17.0496104  42.3418568  72.3848190
  17.4295069  42.7603113  71.7208457  16.4751469  42.9232023  72.6917033
  17.0207429  42.4896427  72.3324931  29.7374599  48.9146542  72.3763338
  29.3789254  49.0861185  73.1527370  29.2513310  49.3759748  71.8191336
  29.6133296  49.0085514  72.4088607  24.5262965  44.5945708  64.9163572
  24.8155490  45.3710590  65.1907146  24.6134764  44.0834439  65.6178071
  24.5817221  44.6337626  65.0606070  32.6236339  41.6539584  77.8896454
  32.1963947  41.5665933  77.1344554  31.9862392  41.7617360  78.4751298
  32.4665946  41.6572244  77.8641896  20.6926906  43.9078972  77.0163684
  19.8514912  43.8082847  77.2242578  20.9016914  44.6774453  77.3678005
  20.5991598  44.0071016  77.0990999  18.1702473  41.5298509  74.8448435
  17.7759170  41.6041521  74.0698545  17.6142590  41.9156456  75.3956797
  18.0305285  41.5980284  74.8116095  29.8067419  34.5079803  74.5252314
  30.0117013  34.4402111  75.3709311  29.4793843  35.3138625  74.4573491
  29.7882667  34.6165744  74.6411969  24.5043571  41.8360372  76.2661282
  24.2006708  41.2816360  76.8671689  23.8022991  42.0152582  75.7789316
  24.3559780  41.7805154  76.2830987  23.5609668  39.1460891  70.8305984
  23.8369402  38.4279804  70.4183551  24.1608337  39.7445811  70.6227090
  23.6902932  39.1281262  70.7386745  33.0601107  35.0611568  74.0055079
  32.4475421  35.5481970  74.3908811  33.1565282  34.3855059  74.5492730
  32.9839005  35.0329876  74.1433937  27.0620188  36.8174409  69.1052579
  27.5163935  36.9884969  69.8300423  27.5360234  36.2042519  68.7050354
  27.1988508  36.7525294  69.1526340  24.4033208  43.5216943  70.2097586
  25.1475253  43.9091219  70.4480536  24.5493904  42.6774369  70.3738074
  24.5343793  43.4547416  70.2691556  27.3911084  39.0942416  76.1091505
  26.9171038  38.5684179  76.6196816  27.7629220  38.5471889  75.5406367
  27.3760973  38.9358413  76.1006652  29.3194584  39.9878971  69.1717259
  28.7917602  40.0707715  68.4822968  29.7790292  40.7296843  69.1681904
  29.3096434  40.1099633  69.0691954  35.6553002  40.9346249  75.4727545
  35.4162772  40.8942083  74.6348329  35.8186903  41.7817401  75.5993266
  35.6443305  41.0538334  75.3681027  21.3127649  38.2581491  64.1958154
  20.9640453  38.9101216  64.6589704  20.8324095  38.2438604  63.4682025
  21.1897893  38.3524544  64.1569245  28.8731666  48.5582535  68.3026916
  29.5965865  49.0240648  68.1591489  28.4332257  48.6256144  67.5524513
  28.9147358  48.6366371  68.1711697  27.2814118  46.4884347  77.2871904
  26.8541726  45.8634066  76.8537339  27.2739063  46.2059269  78.1130911
  27.2173260  46.3537128  77.3451731  21.6851558  40.8840021  69.7084199
  21.8254519  41.3812485  70.4112840  22.1834090  40.1826315  69.8498412
  21.7792638  40.8542000  69.8335778  21.7151780  41.7507132  67.0376776
  22.3496859  42.3467557  66.9726237  21.7977391  41.4510590  67.8522646
  21.8208331  41.7948040  67.1479862  23.2930763  37.6821107  67.0122217
  23.6146604  37.2024190  66.3581480  23.5557707  38.4920754  66.8213029
  23.3796788  37.7311005  66.8877710  18.2204768  43.9474973  70.3066322
  18.7296997  44.5439480  70.6877627  18.6939040  43.6800946  69.6242741
  18.3648144  43.9960788  70.2620844  29.1335516  52.6203240  68.4624977
  28.4164826  52.4464102  67.9972214  29.7842253  52.3855812  67.9300463
  29.1237366  52.5599032  68.3154195  27.1284141  33.5408401  72.7836274
  26.4852459  33.3906048  73.3521412  26.7883548  33.2950747  72.0185378
  26.9829218  33.4820524  72.7539289  31.7183487  41.4967828  72.2066282
  31.0474677  42.0397530  72.0779348  32.4123237  41.9662683  71.9647977
  31.7212355  41.6466099  72.1521810  31.8811615  37.9523712  75.1156655
  32.2339225  37.5253435  75.7902454  31.0226416  37.8674555  75.2457732
  31.8061059  37.8768452  75.2351666  20.5795300  40.5831231  73.1739502
  19.8607289  40.9995364  73.4412365  20.9507662  41.1485470  72.6231140
  20.5287231  40.7280513  73.1322309  29.8794880  41.2159080  79.0641498
  29.8592808  41.0342375  79.9176277  29.9274081  42.0871099  79.0401081
  29.8829521  41.3175619  79.1864792  24.4148678  53.8564998  74.8915125
  24.0009076  53.1939128  74.5018967  25.0996052  54.0042857  74.3710819
  24.4547049  53.7805656  74.7571622  26.3541874  39.6229231  68.5112881
  25.7606713  39.9446228  67.9597448  26.3917152  38.7770327  68.3033988
  26.2716263  39.5453560  68.3995653  33.3135675  33.0742124  76.0440968
  32.8066539  32.3671263  75.9762145  34.1103108  32.7435312  76.1742044
  33.3562914  32.9215275  76.0539963  29.2299691  39.5808736  71.9414632
  29.0013384  39.6041437  71.0992990  29.4897767  38.7566203  72.0609642
  29.2345879  39.4624816  71.8339829  22.2844453  38.1185282  73.2368827
  22.7601819  38.4802362  72.6019008  21.7833053  38.7741750  73.5168970
  22.2809812  38.2679471  73.1845568  35.5155815  47.5907050  69.0281832
  35.8989420  48.3398406  69.2579929  34.7199928  47.8372870  68.7693821
  35.4549597  47.7376744  69.0239406  24.3271106  40.2626482  66.6042211
  24.7070071  40.2806111  65.8193326  23.5863702  40.7080471  66.4833059
  24.2739944  40.3308257  66.4705779  31.9556397  38.5708673  72.1917790
  31.9550623  38.4157330  73.0502066  31.7512577  39.4171660  72.1359176
  31.9256175  38.6729294  72.3105729  29.6797249  43.2506175  75.8453997
  30.1750914  42.5329170  75.8058017  28.8697024  42.9476973  75.7308484
  29.6341142  43.1003821  75.8227723  25.1255860  47.1003988  67.9951001
  24.3167183  46.7770662  67.9484311  25.6330769  46.3937210  67.9279250
  25.0805527  46.9485305  67.9781296  28.3327667  49.7144127  74.8632283
  28.8038845  50.4284389  75.0322268  28.6687846  49.1142877  75.3992153
  28.4522782  49.7315591  74.9664659  31.7795478  37.5747415  79.0111168
  31.1958467  38.0756622  78.5988735  32.0999772  37.0676971  78.3775491
  31.7408653  37.5739250  78.8569675  24.3190277  36.4888010  69.2869843
  25.1405971  36.6586323  69.0451538  23.8559928  36.6435271  68.5636140
  24.3721439  36.5369743  69.1441487  37.8314726  58.2351595  66.4818917
  38.0710729  58.4429578  65.6694260  38.1530567  57.4309103  66.5907861
  37.9151883  58.1465696  66.3779470  33.1405016  50.1644990  70.3278455
  33.8950984  50.5323307  70.0895505  32.9632550  50.5384545  71.0957634
  33.2259494  50.2743178  70.4063343  31.4962080  52.5715309  67.0256568
  31.3137654  52.7887190  66.1997560  32.3587693  52.6854322  67.0815182
  31.5966670  52.6205207  66.9111055  37.1761800  49.5741720  70.0605591
  37.9047960  49.3957675  69.6143748  37.2656693  50.4159800  70.2712770
  37.2968462  49.6725598  70.0259109  31.0424107  55.8489482  65.5379041
  30.3282285  55.5627661  65.9501473  31.5268076  56.1886108  66.1785428
  31.0083471  55.8571132  65.6934676  30.1723438  54.4629453  70.3483515
  29.8848234  54.0930723  69.6115462  30.8593907  54.9324308  70.0867220
  30.2312336  54.4776422  70.1998591  27.7451633  55.2410665  71.1968796
  27.8467770  56.0436827  71.5249771  28.5407520  55.0398001  70.8991877
  27.8779539  55.3296564  71.2004151  35.4995548  60.1131016  64.9163572
  35.7888073  60.8895898  65.1907146  35.5867347  59.6019747  65.6178071
  35.5549805  60.1522934  65.0606070  38.0352772  52.3359717  69.1052579
  38.4896518  52.5070277  69.8300423  38.5092818  51.7227827  68.7050354
  38.1721092  52.2710602  69.1526340  32.2860232  53.7766799  64.1958154
  31.9373037  54.4286524  64.6589704  31.8056678  53.7623912  63.4682025
  32.1630476  53.8709852  64.1569245  32.6884364  57.2692440  67.0376776
  33.3229443  57.8652865  66.9726237  32.7709974  56.9695898  67.8522646
  32.7940915  57.3133348  67.1479862  34.2663346  53.2006415  67.0122217
  34.5879187  52.7209498  66.3581480  34.5290290  54.0106061  66.8213029
  34.3529372  53.2496313  66.8877710  37.3274458  55.1414539  68.5112881
  36.7339297  55.4631536  67.9597448  37.3649735  54.2955635  68.3033988
  37.2448847  55.0638867  68.3995653  35.3003690  55.7811790  66.6042211
  35.6802655  55.7991419  65.8193326  34.5596286  56.2265779  66.4833059
  35.2472528  55.8493564  66.4705779  35.2922860  52.0073318  69.2869843
  36.1138555  52.1771631  69.0451538  34.8292511  52.1620579  68.5636140
  35.3454023  52.0555051  69.1441487  15.7925031  13.1149239  54.0027949
  15.4576400  13.7926161  53.5672171  16.3051902  12.7254550  53.4144821
  15.8190612  13.1573817  53.8514741  20.5775821   6.6437803  56.3270550
  20.4615347   7.3945489  56.7562688  21.3731708   6.3861756  56.5766637
  20.6780411   6.7172649  56.4274642  18.3005127   7.3745447  54.6384840
  18.2156422   8.2306413  54.7834409  18.7889510   7.0989771  55.3066999
  18.3594024   7.4602768  54.7586921  15.9657082  10.2526951  52.8480896
  16.3808231   9.9211975  52.1565391  15.1349012  10.0195853  52.7201032
  15.9045091  10.1698207  52.7271743  18.6590472   6.5037511  52.0342097
  18.5770635   6.5739698  52.8997084  19.2970193   7.0667255  51.8425838
  18.7410310   6.5976482  52.1332047  12.5564548  13.4386648  56.5830275
  12.8462847  13.0475629  55.8589502  13.2868029  13.6203353  57.0235551
  12.7071433  13.4080462  56.5413082  12.6638420  16.7883420  58.4321117
  13.3162478  16.2559863  58.6612143  11.9664028  16.4352073  58.8188991
  12.6569138  16.6572943  58.5233285  17.1284916  12.0526619  57.1989176
  16.8871592  11.3194479  56.7916241  17.3086249  12.6013476  56.5455509
  17.1192540  12.0249010  57.0419399  21.8541036   9.1594062  54.5677733
  21.4747845   8.3731200  54.5607023  21.1907281   9.7080919  54.4249377
  21.6999511   9.1238886  54.5458530  17.2006605   9.7419765  50.3866509
  17.9679590   9.8019890  49.9772361  16.7537914   9.1700206  49.9022827
  17.2480032   9.6656341  50.2544219  20.1001135  11.4039553  54.9029419
  20.1820972  12.2106539  54.5790870  20.5850877  11.4235512  55.6270192
  20.1838293  11.5260216  54.9616318  13.9045677  11.3451676  55.1560861
  13.9738498  10.4866214  55.2953861  14.6834133  11.5623556  54.8279885
  14.0298527  11.2504540  55.1278018  18.2953165  13.7689377  59.3697354
  17.9032957  13.4656092  58.6520220  18.4506237  14.6058467  59.1802308
  18.2606755  13.8473214  59.2353851  13.2481205   6.0138531  51.8503619
  13.5373730   6.7903414  52.1247193  13.3353004   5.5027263  52.5518118
  13.3035461   6.0530449  51.9946117  17.5949907   9.9775358  55.2366963
  18.3184105  10.4433471  55.0931536  17.1550498  10.0448967  54.4864560
  17.6365599  10.0559195  55.1051744  17.8553756  14.0396063  55.3965024
  17.1383066  13.8656925  54.9312261  18.5060494  13.8048635  54.8640510
  17.8455607  13.9791855  55.2494242  24.2374055   9.0099873  55.9621879
  24.6207661   9.7591230  56.1919976  23.4418168   9.2565693  55.7033868
  24.1767837   9.1569567  55.9579453  33.7291830  19.5870808  58.0552240
  33.6985835  20.4415445  58.2270509  34.3273179  19.2866101  58.6138384
  33.8128988  19.6687305  58.1627042  26.9291515  18.6746459  62.8105170
  26.0729411  18.8354958  62.8614287  26.9759169  17.8038523  62.8310232
  26.8090627  18.5697261  62.8211237  21.3132655  28.2109177  58.5742402
  20.5615555  27.8324716  58.3458447  21.7618667  28.2427611  57.8261212
  21.2682322  28.1594784  58.4299904  26.3061906  30.5848816  59.9439061
  26.6901285  31.1535714  59.4043836  26.2421047  29.8598326  59.4644877
  26.3535333  30.5624279  59.7932923  29.7743336  20.7338503  65.4536822
  30.3199296  21.4123590  65.5130792  29.7160213  20.5925964  64.5938404
  29.8459251  20.8130505  65.3348883  22.8917411  28.2227569  60.8405175
  22.9927774  27.4127923  61.1502302  22.2959156  28.1284516  60.2104853
  22.8189950  28.0892598  60.7931413  31.5508405  22.1623110  56.3270550
  31.4347931  22.9130797  56.7562688  32.3464292  21.9047064  56.5766637
  31.6512994  22.2357957  56.4274642  22.7318151  33.1405159  62.2420031
  23.3755606  33.5818323  62.6316189  23.0574406  32.3358585  62.1550289
  22.8749979  33.0870353  62.2865508  16.0882455  24.2447856  60.4657508
  15.8532640  23.4115508  60.3589777  16.2268096  24.5252522  59.6518709
  16.0738118  24.1631359  60.3299863  23.4338730  26.1517134  57.6139892
  23.7554572  26.6922341  57.0101200  24.0810827  25.5813905  57.7462182
  23.5764786  26.1476309  57.5446928  25.4840439  18.1533128  57.6974279
  26.1820603  18.3321256  58.1895742  25.7992771  17.6303468  57.0744668
  25.6335776  18.1026901  57.6776289  25.6728374  24.5403573  57.6854070
  26.1122009  23.9320674  58.1308843  25.5233037  24.1610947  56.9139536
  25.7149840  24.3942045  57.6373238  23.1400017  23.1347585  64.8872896
  23.7849019  22.6420028  64.5683845  23.3801794  23.2772372  65.7138974
  23.2710602  23.0825028  64.9622429  25.6786108  25.9802491  64.5379789
  25.9609351  25.1853897  64.3166544  26.4072269  26.4583079  64.5584850
  25.8275672  25.9337088  64.5082804  29.2737710  22.8930755  54.6384840
  29.1889006  23.7491721  54.7834409  29.7622094  22.6175079  55.3066999
  29.3326608  22.9788076  54.7586921  30.8643710   9.5111048  60.0245164
  30.5497151  10.2014527  60.4565587  30.3470652   9.4555830  59.3230665
  30.7408180   9.6045937  59.9842113  30.2056144  19.5115549  56.1382575
  29.6767615  19.7275182  56.7979881  30.7281164  20.2051687  56.0583544
  30.2044597  19.6458686  56.2238174  35.6604197  25.0861853  61.5115619
  34.8301900  25.2972497  61.6749036  35.6113449  24.2598908  61.2357903
  35.5310932  24.9951460  61.4952985  22.0955751  23.4078766  54.9390043
  21.5112967  23.9128797  55.3455907  21.6925847  23.1821153  54.1986635
  21.9495055  23.4487014  54.8895068  17.6499780  29.1233527  61.7413714
  17.1667358  29.8484016  61.7173298  18.4623098  29.4209657  61.8523872
  17.6990528  29.2735881  61.7540994  23.7213934  27.9165708  64.3463529
  23.2040876  27.5573123  63.7424837  24.4188325  27.3927882  64.3569595
  23.7479515  27.7863395  64.2593788  27.3777526  28.3660522  70.3079702
  27.4660872  28.1786662  71.1557912  27.8067239  27.7197951  69.9084549
  27.4539629  28.2423529  70.3751453  24.9447986  27.6491682  69.2897364
  24.3818821  27.2364291  69.8137025  25.7069009  27.5744587  69.7090507
  24.9742435  27.5769082  69.4290364  26.5532966  19.6544418  53.4158963
  26.7928970  19.8622402  52.6034307  26.8748807  18.8501926  53.5247908
  26.6370124  19.5658519  53.3119516  21.8623256  11.5837814  57.2618501
  22.6169224  11.9516131  57.0235552  21.6850791  11.9577368  58.0297681
  21.9477735  11.6936001  57.3403390  20.5043977  29.6389703  61.8933994
  21.2064557  29.1241692  61.9506751  20.4241460  29.9663854  62.6980869
  20.5967738  29.6103929  62.0206786  35.1558155  17.7332254  65.3066041
  34.3186576  17.8034441  65.5413635  35.1246386  17.7356749  64.4340343
  35.0276437  17.7442481  65.2125589  20.2180321  13.9908132  53.9596614
  20.0355894  14.2080013  53.1337607  21.0805934  14.1047145  54.0155229
  20.3184910  14.0398030  53.8451101  19.8294753  25.8296055  61.4019602
  20.6683652  26.0618988  61.4493364  19.8606522  24.9600366  61.3326638
  19.9576470  25.7353001  61.3984247  20.4547456  26.2496930  65.7032908
  20.9945681  26.1068061  66.3736280  19.7717402  26.6493681  66.0716934
  20.4339610  26.2876601  65.8567330  25.8980040  10.9934543  56.9945638
  26.6266200  10.8150498  56.5483794  25.9874933  11.8352623  57.2052816
  26.0186702  11.0918422  56.9599156  29.8788341  21.9287931  60.8977932
  30.6345856  22.3619445  60.9366841  29.9850665  21.2792700  61.4712568
  30.0058511  21.8965414  60.9875958  32.9168512  25.7561208  61.6480335
  32.4803744  25.7597950  62.4039307  32.5831427  26.4366707  61.2159913
  32.8031132  25.8573664  61.6961168  32.8365995  12.7975036  63.8909763
  33.4791903  12.8673140  64.4771678  33.0889015  12.1304259  63.3889305
  32.9688127  12.7101384  63.9037042  19.7642348  17.2682305  52.4719087
  19.0500525  16.9820485  52.8841520  20.2486317  17.6078931  53.1125475
  19.7301711  17.2763955  52.6274722  27.6467979  29.7079643  66.6189941
  26.8483225  29.4679143  66.8763810  28.0953990  29.7594036  67.3656989
  27.5942590  29.6802034  66.7674865  36.0512858  22.4742128  60.5399972
  36.7129292  21.9132796  60.4395881  35.4104270  21.9794158  60.8652664
  36.0541726  22.3178537  60.5732313  26.9389666  25.7712259  52.8480896
  27.3540814  25.4397283  52.1565391  26.1081595  25.5381161  52.7201032
  26.8777675  25.6883515  52.7271743  16.2678015  23.2556000  63.1379074
  16.0853588  23.2302886  62.2851366  17.0027683  23.7254938  63.1767982
  16.3492078  23.3217362  63.0176992  32.3377689  23.4907510  60.2811961
  32.5733278  23.6352709  59.4538812  32.4867252  24.2549918  60.6743475
  32.3943492  23.6246564  60.2175565  34.1668145  22.3309176  58.1181565
  34.4976363  22.8636816  57.5121660  34.7401234  22.3848064  58.7743516
  34.3001825  22.4178745  58.1259347  29.3800035  20.1774079  58.8005145
  29.4746889  20.9163373  59.2544771  28.7558878  19.7491554  59.2339710
  29.3009065  20.2235399  58.9313293  29.6323056  22.0222819  52.0342097
  29.5503218  22.0925006  52.8997084  30.2702776  22.5852562  51.8425838
  29.7142893  22.1161790  52.1332047  22.9916227  21.7883556  61.5016623
  22.7335471  20.9555291  61.4747923  23.0464710  22.0141169  60.6609124
  22.9616005  21.6981328  61.3736760  28.0717277  13.8912007  61.6020716
  27.3673604  13.4021193  61.7604635  28.1202252  13.9034482  60.7309160
  27.9747329  13.8201655  61.4960056  21.9650939  19.3421319  61.9881518
  21.3900530  19.5013487  62.6245479  21.5886616  18.7056728  61.5249969
  21.8253752  19.2719132  62.0136077  35.2747497  17.5719673  59.6221727
  35.0184062  16.7599614  59.4319609  36.1176811  17.5797240  59.3951914
  35.3613522  17.4531670  59.5606544  26.7363166  22.0443273  55.0450704
  27.5503805  22.3358166  54.9333475  26.6722307  21.3903135  54.4708997
  26.8465905  21.9908468  54.9439541  32.9572656  24.7269269  69.4580279
  32.7211294  23.8957334  69.3392340  33.6015885  24.6754876  70.0435123
  33.0167327  24.5966957  69.5266173  22.6071074  25.5164790  60.1723016
  23.2445021  25.2776538  60.7174809  23.0326146  25.7201949  59.4376176
  22.7647241  25.5115800  60.1440173  17.2983717  27.7553127  64.0557319
  17.3387862  28.0267978  63.2277099  17.8578241  28.2795035  64.4715107
  17.3867063  27.8728882  63.9949208  23.2473889  20.7367080  54.5097905
  23.6319042  20.5174787  55.2614450  22.9985510  21.5630025  54.6398981
  23.2675962  20.8265226  54.6398981  33.9809077  24.5113718  65.5208574
  33.6754894  25.2441775  65.8821889  33.2615293  24.1051647  65.2401360
  33.8296419  24.5595451  65.5321711  24.9892546  25.9937213  61.8516802
  25.0631555  25.8312385  62.7058652  25.8062053  26.1827402  61.6077284
  25.1208905  25.9973955  61.9414827  39.6810869  21.1506718  64.8476918
  39.6135369  21.1702678  63.9779504  39.6666531  21.9937046  65.0732588
  39.6689626  21.2780453  64.7529395  18.7498303  26.3395076  58.8811245
  17.9236421  26.5856813  58.7545524  18.8110294  26.2607157  59.7473303
  18.6372470  26.3640025  58.9900190  20.9674327  12.4064017  59.8406686
  20.0996752  12.4786616  59.9064295  21.2549531  13.2086096  60.0294661
  20.8814075  12.5358164  59.8781452  23.5297132  28.9571956  56.5830275
  23.8195430  28.5660937  55.8589502  24.2600613  29.1388661  57.0235551
  23.6804016  28.9265770  56.5413082  37.4669486  19.9251105  63.1223512
  38.0177408  19.2919174  63.3620604  37.4513602  20.4566497  63.8139017
  37.5454683  19.9100053  63.2602371  24.1191877  23.7589702  67.6683406
  23.6203571  24.4705470  67.7468294  24.9292102  24.0790368  67.6301568
  24.1647984  23.9116550  67.6739974  21.4703048  30.9339338  59.6490425
  21.2503343  30.6436693  60.4417092  21.2497570  30.2754293  59.1208337
  21.4050642  30.7939047  59.6879334  20.3819995  23.0212655  61.9146127
  20.0933243  22.3950126  62.4491854  21.2503343  22.9632942  61.9810807
  20.4680247  22.9200199  62.0037081  31.1697893  18.1647438  62.2328109
  30.8262658  17.4437773  62.5835358  31.2690935  17.9561289  61.3906467
  31.1339935  18.0271642  62.1599789  23.6371003  32.3068728  58.4321117
  24.2895061  31.7745171  58.6612143  22.9396612  31.9537381  58.8188991
  23.6301721  32.1758251  58.5233285  20.5852268  24.6607906  57.8388492
  21.3398236  25.0420945  58.0523954  19.9922881  25.1119050  58.2935188
  20.6088982  24.7836733  57.9371370  31.6310922  24.6273142  57.7752097
  32.1968954  25.2866352  57.6910640  30.9838825  24.9722840  58.2468499
  31.6189678  24.7755084  57.8324853  21.9050495  25.8316467  63.2128607
  21.3831248  25.9716759  63.8980472  22.2924515  25.0727132  63.4030724
  21.8854196  25.7401991  63.3429684  18.8941679  15.8822276  57.2823562
  18.6066475  15.5123546  56.5455509  19.5812147  16.3517131  57.0207267
  18.9530576  15.8969245  57.1338638  28.1017500  27.5711927  57.1989176
  27.8604176  26.8379787  56.7916241  28.2818833  28.1198784  56.5455509
  28.0925124  27.5434318  57.0419399  23.3316820  22.8620486  58.6110098
  23.1359603  23.4695221  58.0170401  23.5551166  22.1688430  58.1301772
  23.3351461  22.8498012  58.4526179  21.7295350  19.7475224  58.7290967
  22.4518002  19.9116382  58.2694773  21.2503343  20.4684889  58.6230306
  21.7659081  19.8773454  58.6456581  29.6888858  16.0839023  64.1087651
  28.8499959  16.1100302  63.8725915  29.7593225  16.7309758  64.6892998
  29.5757252  16.1835149  64.1596768  28.1358136  12.9824400  58.8415267
  28.8384489  12.7832148  58.3635226  27.8702325  12.2100342  59.1484111
  28.2004769  12.8387366  58.8160709  33.5646382  21.2907010  61.3948893
  33.4780356  21.4462436  62.2483672  33.1096862  21.9345085  61.0208298
  33.4849638  21.4082765  61.4656000  16.4669873  16.6603488  58.1308843
  16.5686010  17.4629650  58.4589818  17.2625760  16.4590824  57.8331923
  16.5997779  16.7489387  58.1344198  27.4372198  18.6117757  60.0174453
  27.1906912  18.5313508  60.8511242  27.7657321  17.8271225  59.8236980
  27.4493441  18.4844022  60.1121976  31.3320247  25.3201116  63.8061234
  31.1934606  26.0182162  64.3109976  30.5520245  25.1649773  63.4497416
  31.1963474  25.4001283  63.8287508  22.4696980  29.5377247  66.2958463
  22.6186544  28.9780163  65.6431867  23.2496982  29.6169249  66.6790981
  22.6071074  29.4662813  66.2555412  32.8273620  24.6779370  54.5677733
  32.4480428  23.8916508  54.5607023  32.1639865  25.2266227  54.4249377
  32.6732094  24.6424194  54.5458530  24.9950281  29.7091890  67.5742953
  24.9193952  29.0400701  68.1293742  24.9240140  30.4109678  68.0883620
  24.9730888  29.7136798  67.7319802  25.6520528  28.2292889  58.4066559
  26.4170419  27.9602533  58.0849224  25.5498618  27.7442899  59.1236622
  25.7502023  28.1182454  58.4646387  29.0716984  24.0659729  62.6719241
  28.3961986  23.8344961  63.1732628  29.0809360  23.4580912  62.0461346
  28.9735488  23.9418654  62.6535393  24.8830222  21.6009697  63.5699497
  24.4592471  21.8014196  62.8338515  24.7075077  20.7538545  63.6823797
  24.7941102  21.5058478  63.4773187  24.3841915  33.1160210  66.0320954
  24.8737845  32.4170999  65.8496619  23.8126147  32.8184080  66.6197012
  24.3726445  32.9686434  66.0921995  20.1712667  22.0961748  59.0027469
  20.3277286  22.0308551  59.8583462  20.5113260  22.8710301  58.7906149
  20.2445901  22.2010947  59.0982064  26.7091811  21.4719632  57.8720833
  27.2507357  20.9690013  58.3359453  27.0238370  21.4184827  57.0610318
  26.8356208  21.3899053  57.8204645  24.8778261  26.8636984  55.1560861
  24.9471081  26.0051522  55.2953861  25.6566716  27.0808864  54.8279885
  25.0031111  26.7689847  55.1278018  29.2685749  29.2874685  59.3697354
  28.8765540  28.9841400  58.6520220  29.4238821  30.1243775  59.1802308
  29.2339338  29.3658522  59.2353851  16.7446928  19.2796699  59.3188237
  17.1245893  19.6981244  58.6548504  16.1702293  19.8610155  59.6257080
  16.7158253  19.4274558  59.2664978  29.4325423  25.8524674  59.3103385
  29.0740078  26.0239317  60.0867417  28.9464134  26.3137879  58.7531383
  29.3084120  25.9463645  59.3428654  24.2213789  21.5323839  51.8503619
  24.5106314  22.3088722  52.1247193  24.3085588  21.0212571  52.5518118
  24.2768045  21.5715757  51.9946117  30.5930163  26.7428570  70.2570585
  31.2309883  26.2488765  69.9233042  29.9504254  26.6705970  69.6722812
  30.5924389  26.6587578  70.1212940  32.3187163  18.5917716  64.8236501
  31.8914771  18.5044064  64.0684601  31.6813216  18.6995491  65.4091345
  32.1616770  18.5950375  64.7981943  30.6484419  27.4348378  66.8975942
  31.4376797  27.0837443  67.0178024  30.8228017  28.2484766  66.6352576
  30.7904701  27.5034235  66.8763810  20.3877730  20.8457104  63.9503731
  19.5465736  20.7460978  64.1582625  20.5967738  21.6152584  64.3018052
  20.2942422  20.9449147  64.0331046  17.8653297  18.4676641  61.7788482
  17.4709994  18.5419652  61.0038591  17.3093413  18.8534587  62.3296843
  17.7256109  18.5358415  61.7456142  29.5018243  11.4457935  61.4592361
  29.7067837  11.3780242  62.3049358  29.1744667  12.2516756  61.3913538
  29.4833491  11.5543875  61.5752016  24.1994395  18.7738503  63.2001329
  23.8957532  18.2194491  63.8011736  23.4973815  18.9530713  62.7129363
  24.0510604  18.7183285  63.2171034  23.2560492  16.0839023  57.7646030
  23.5320226  15.3657935  57.3523598  23.8559161  16.6823943  57.5567136
  23.3853756  16.0659393  57.6726792  32.7551931  11.9989699  60.9395126
  32.1426245  12.4860101  61.3248858  32.8516106  11.3233190  61.4832777
  32.6789829  11.9708008  61.0773984  26.7571012  13.7552540  56.0392625
  27.2114759  13.9263100  56.7640470  27.2311058  13.1420651  55.6390401
  26.8939332  13.6903425  56.0866387  20.2786538  23.2400866  65.3695364
  19.6874471  23.8810364  65.3398379  21.0407561  23.6638483  65.3426663
  20.3034798  23.3976704  65.3610511  36.3976959  23.0706636  66.3672642
  36.4560083  23.5193284  67.1132619  35.7643427  23.4805448  65.9302722
  36.3128254  23.1980370  66.4125191  30.0376054  28.6910178  62.8027388
  29.8395742  29.1800992  62.1083600  29.4163765  28.8951419  63.3811522
  29.9163618  28.7926716  62.7850612  24.0984032  20.4595074  57.1437633
  24.8426077  20.8469351  57.3820583  24.2444728  19.6152500  57.3078120
  24.2294617  20.3925547  57.2031602  27.0861908  16.0320548  63.0431552
  26.6121862  15.5062310  63.5536863  27.4580044  15.4850020  62.4746414
  27.0711797  15.8736544  63.0346699  33.3498639  21.0922923  64.4538333
  33.1096861  20.2529338  64.4580759  33.8290646  21.1723090  65.1779106
  33.3850822  20.9804323  64.5613135  29.0145408  16.9257102  56.1057306
  28.4868426  17.0085846  55.4163015  29.4741116  17.6674974  56.1021950
  29.0047258  17.0477765  56.0032001  35.3503826  17.8724381  62.4067592
  35.1113596  17.8320215  61.5688376  35.5137727  18.7195533  62.5333313
  35.3394129  17.9916466  62.3021074  31.9549856  22.2574330  68.3372637
  32.6784055  21.8046856  68.1583657  31.6899818  22.5378995  67.5544965
  32.0231129  22.2325298  68.1951352  21.0078473  15.1959622  51.1298201
  20.6591277  15.8479347  51.5929750  20.5274919  15.1816735  50.4022072
  20.8848717  15.2902675  51.0909292  28.5682490  25.4960666  55.2366963
  29.2916689  25.9618779  55.0931536  28.1283081  25.5634275  54.4864560
  28.6098182  25.5744503  55.1051744  27.7368645  22.3558208  66.4867652
  27.1225638  21.8116258  66.7816287  28.2535930  21.8422445  66.0073468
  27.7224308  22.1994617  66.4591880  26.9764942  23.4262478  64.2211950
  26.5492550  22.8012197  63.7877386  26.9689887  23.1437400  65.0470958
  26.9124084  23.2915259  64.2791778  21.3802382  17.8218152  56.6424246
  21.5205343  18.3190616  57.3452887  21.8784914  17.1204447  56.7838459
  21.4743462  17.7920131  56.7675825  21.4102604  18.6885263  53.9716822
  22.0447683  19.2845688  53.9066284  21.4928215  18.3888721  54.7862692
  21.5159155  18.7326171  54.0819909  34.3885170  21.2200741  66.8403186
  34.9803010  21.8597991  66.8721385  34.8244164  20.5223777  67.1295253
  34.5403601  21.2119091  66.8884019  22.9881587  14.6199239  53.9462264
  23.3097428  14.1402321  53.2921527  23.2508530  15.4298885  53.7553076
  23.0747612  14.6689137  53.8217756  26.2178560  25.6418113  67.4661080
  25.7103651  26.1953960  67.9101711  25.9205206  25.7026403  66.6479855
  26.0983444  25.7324424  67.4109537  17.9155592  20.8853104  57.2406368
  18.4247821  21.4817612  57.6217674  18.3889864  20.6179078  56.5582788
  18.0598967  20.9338919  57.1960891  26.8234965  10.4786532  59.7176320
  26.1803283  10.3284179  60.2861459  26.4834372  10.2328878  58.9525425
  26.6780042  10.4198655  59.6879336  31.4134311  18.4345959  59.1406329
  30.7425501  18.9775662  59.0119395  32.1074061  18.9040815  58.8988024
  31.4163179  18.5844230  59.0861857  25.4621045  30.5742671  64.3718087
  25.2386699  29.8161501  64.7402114  24.9730888  30.6040692  63.6498527
  25.3564494  30.4664896  64.3194828  31.5762439  14.8901843  62.0496702
  31.9290049  14.4631566  62.7242501  30.7177240  14.8052686  62.1797779
  31.5011883  14.8146584  62.1691713  20.2746124  17.5209363  60.1079549
  19.5558113  17.9373495  60.3752412  20.6458486  18.0863601  59.5571187
  20.2238055  17.6658644  60.0662356  29.5745704  18.1537211  65.9981544
  29.5543632  17.9720507  66.8516323  29.6224905  19.0249230  65.9741128
  29.5780345  18.2553750  66.1204839  24.1099502  30.7943129  61.8255172
  23.6959900  30.1317260  61.4359014  24.7946876  30.9420988  61.3050866
  24.1497873  30.7183788  61.6911669  27.4764796  29.9533215  62.5778788
  27.0781079  30.0635485  61.8099609  26.8616015  30.1615281  63.1605348
  27.3263685  30.0006783  62.5510088  26.0492698  16.5607362  55.4452928
  25.4557537  16.8824359  54.8937495  26.0867976  15.7148458  55.2374034
  25.9667087  16.4831691  55.3335700  33.0086499  10.0120255  62.9781015
  32.5017363   9.3049394  62.9102192  33.8053932   9.6813444  63.1082091
  33.0513738   9.8593406  62.9880010  28.9250514  16.5186867  58.8754678
  28.6964207  16.5419568  58.0333037  29.1848591  15.6944334  58.9949689
  28.9296703  16.4002947  58.7679876  21.9795277  15.0563413  60.1708874
  22.4552643  15.4180493  59.5359055  21.4783877  15.7119881  60.4509017
  21.9760636  15.2057602  60.1185615  35.2106639  24.5285181  55.9621879
  35.5940244  25.2776538  56.1919976  34.4150752  24.7751001  55.7033868
  35.1500421  24.6754875  55.9579453  24.0221930  17.2004613  53.5382258
  24.4020895  17.2184242  52.7533373  23.2814526  17.6458602  53.4173105
  23.9690768  17.2686388  53.4045826  31.6507221  15.5086804  59.1257837
  31.6501447  15.3535461  59.9842113  31.4463401  16.3549791  59.0699222
  31.6206999  15.6107425  59.2445776  29.3748073  20.1884306  62.7794044
  29.8701738  19.4707301  62.7398064  28.5647848  19.8855104  62.6648531
  29.3291966  20.0381952  62.7567769  24.8206684  24.0382119  54.9291048
  24.0118007  23.7148793  54.8824358  25.3281593  23.3315341  54.8619297
  24.7756351  23.8863436  54.9121342  15.4496961  21.4654312  60.6538412
  14.5842481  21.4540003  60.5421184  15.5495777  21.2784535  61.5009552
  15.3371128  21.4360374  60.7627357  31.4399892  22.9387994  65.4671172
  31.8654963  22.4162415  64.9141597  31.0756811  23.5368831  64.9459795
  31.4486494  22.9498221  65.3080182  21.0753971  31.2352211  64.2268518
  21.3900530  32.0488600  64.2346300  21.4847385  30.8502430  64.8950677
  21.1822069  31.2980913  64.3272610  28.0278491  26.6522258  61.7972330
  28.4989669  27.3662520  61.9662315  28.3638670  26.0521008  62.3332199
  28.1473606  26.6693722  61.9004706  28.6652437  26.4440192  68.5600023
  28.1173383  25.8198076  68.2920088  29.1265466  26.6334464  67.8444102
  28.6519647  26.3799242  68.4150454  24.0141101  13.4266141  56.2209890
  24.8356795  13.5964454  55.9791585  23.5510752  13.5813402  55.4976187
  24.0672263  13.4747874  56.0781534  18.4166991  25.1825320  63.8747126
  19.0211849  25.1421154  63.2460947  18.2094304  26.0296472  63.9051182
  18.4755889  25.3013322  63.7863243  28.2310764  27.4491265  65.0909364
  29.0509137  27.3054231  65.3525659  27.9504841  28.0737464  65.6325802
  28.3107507  27.5201617  65.2097303  44.7024414  35.1056116  58.0552240
  44.6718418  35.9600753  58.2270509  45.3005763  34.8051409  58.6138384
  44.7861572  35.1872613  58.1627042  37.9024099  34.1931767  62.8105170
  37.0461994  34.3540266  62.8614287  37.9491753  33.3223831  62.8310232
  37.7823210  34.0882569  62.8211237  32.2865239  43.7294485  58.5742402
  31.5348138  43.3510024  58.3458447  32.7351250  43.7612919  57.8261212
  32.2414905  43.6780092  58.4299904  41.2117815  40.4618293  72.4165627
  41.9184583  39.9670324  72.5452561  41.4005751  40.9027375  71.6868285
  41.3445721  40.4536643  72.3274672  37.2794490  46.1034123  59.9439061
  37.6633869  46.6721022  59.4043836  37.2153631  45.3783634  59.4644877
  37.3267917  46.0809587  59.7932923  40.7475920  36.2523811  65.4536822
  41.2931880  36.9308898  65.5130792  40.6892796  36.1111272  64.5938404
  40.8191834  36.3315813  65.3348883  33.8649995  43.7412877  60.8405175
  33.9660358  42.9313231  61.1502302  33.2691740  43.6469824  60.2104853
  33.7922533  43.6077906  60.7931413  33.7050734  48.6590467  62.2420031
  34.3488190  49.1003631  62.6316189  34.0306990  47.8543893  62.1550289
  33.8482563  48.6055661  62.2865508  27.0615039  39.7633164  60.4657508
  26.8265223  38.9300816  60.3589777  27.2000680  40.0437830  59.6518709
  27.0470701  39.6816667  60.3299863  29.3605126  31.9318895  63.3641816
  28.7410158  31.3411542  63.1951831  29.2588990  32.5230330  62.7306139
  29.2542802  31.9322977  63.2446805  34.4071314  41.6702441  57.6139892
  34.7287155  42.2107649  57.0101200  35.0543411  41.0999213  57.7462182
  34.5497369  41.6661617  57.5446928  36.4573022  33.6718436  57.6974279
  37.1553187  33.8506564  58.1895742  36.7725355  33.1488776  57.0744668
  36.6068359  33.6212208  57.6776289  29.0874260  35.4771176  65.6085385
  28.9632956  36.0633622  66.2435204  29.7392544  34.9831372  65.9097660
  29.1647909  35.4909981  65.7471314  36.6460957  40.0588881  57.6854070
  37.0854593  39.4505982  58.1308843  36.4965620  39.6796255  56.9139536
  36.6882423  39.9127353  57.6373238  34.1132601  38.6532893  64.8872896
  34.7581603  38.1605336  64.5683845  34.3534378  38.7957680  65.7138974
  34.2443186  38.6010335  64.9622429  36.6518692  41.4987799  64.5379789
  36.9341935  40.7039205  64.3166544  37.3804852  41.9768387  64.5584850
  36.8008256  41.4522396  64.5082804  34.6299886  29.0410833  61.7795554
  34.3003216  29.4921977  61.1099252  33.9544888  28.9626996  62.3268560
  34.4810322  29.0961968  61.7618777  41.8376293  25.0296356  60.0245164
  41.5229734  25.7199835  60.4565587  41.3203235  24.9741138  59.3230665
  41.7140764  25.1231244  59.9842113  41.1788727  35.0300857  56.1382575
  40.6500199  35.2460490  56.7979881  41.7013747  35.7236995  56.0583544
  41.1777180  35.1643994  56.2238174  46.6336780  40.6047161  61.5115619
  45.8034483  40.8157805  61.6749036  46.5846032  39.7784216  61.2357903
  46.5043516  40.5136768  61.4952985  33.0688335  38.9264074  54.9390043
  32.4845550  39.4314105  55.3455907  32.6658430  38.7006461  54.1986635
  32.9227639  38.9672322  54.8895068  28.6232364  44.6418835  61.7413714
  28.1399942  45.3669324  61.7173298  29.4355682  44.9394965  61.8523872
  28.6723111  44.7921188  61.7540994  34.6946518  43.4351015  64.3463529
  34.1773459  43.0758430  63.7424837  35.3920909  42.9113190  64.3569595
  34.7212099  43.3048703  64.2593788  38.3510110  43.8845830  70.3079702
  38.4393456  43.6971970  71.1557912  38.7799822  43.2383259  69.9084549
  38.4272212  43.7608837  70.3751453  35.9180570  43.1676990  69.2897364
  35.3551404  42.7549599  69.8137025  36.6801593  43.0929895  69.7090507
  35.9475018  43.0954390  69.4290364  32.8355840  27.1023121  57.2618501
  33.5901808  27.4701439  57.0235552  32.6583374  27.4762676  58.0297681
  32.9210318  27.2121309  57.3403390  31.4776561  45.1575011  61.8933994
  32.1797140  44.6427000  61.9506751  31.3974044  45.4849162  62.6980869
  31.5700321  45.1289237  62.0206786  46.1290738  33.2517562  65.3066041
  45.2919160  33.3219749  65.5413635  46.0978969  33.2542057  64.4340343
  46.0009021  33.2627789  65.2125589  32.5255468  35.3950598  71.0214409
  32.6975971  35.2856492  71.8699691  33.0624825  36.0405003  70.7845602
  32.6300471  35.4742599  71.1119506  30.8027336  41.3481363  61.4019602
  31.6416236  41.5804295  61.4493364  30.8339106  40.4785674  61.3326638
  30.9309054  41.2538309  61.3984247  31.4280039  41.7682238  65.7032908
  31.9678264  41.6253369  66.3736280  30.7449986  42.1678989  66.0716934
  31.4072193  41.8061909  65.8567330  36.8712624  26.5119851  56.9945638
  37.5998784  26.3335806  56.5483794  36.9607517  27.3537931  57.2052816
  36.9919286  26.6103730  56.9599156  40.8520924  37.4473238  60.8977932
  41.6078439  37.8804753  60.9366841  40.9583249  36.7978008  61.4712568
  40.9791095  37.4150722  60.9875958  43.8901095  41.2746516  61.6480335
  43.4536327  41.2783258  62.4039307  43.5564011  41.9552015  61.2159913
  43.7763715  41.3758972  61.6961168  38.4630169  43.3154849  72.9723485
  39.2470586  43.4285696  73.3379228  38.2626764  42.4895986  73.1682171
  38.5496194  43.2101568  73.0557871  26.8317184  37.9882529  65.8567329
  26.5655600  37.1721645  66.0158320  26.8455749  38.0335684  64.9862845
  26.7941907  37.8739433  65.7520811  43.8098578  28.3160344  63.8909763
  44.4524487  28.3858448  64.4771678  44.0621599  27.6489566  63.3889305
  43.9420710  28.2286692  63.9037042  31.5815791  31.5260907  68.5034337
  30.8887588  31.0557887  68.7495069  32.1976118  31.2999211  69.0776044
  31.5700321  31.4228039  68.6243490  38.6200562  45.2264951  66.6189941
  37.8215808  44.9864451  66.8763810  39.0686574  45.2779344  67.3656989
  38.5675174  45.1987342  66.7674865  47.0245442  37.9927436  60.5399972
  47.6861876  37.4318104  60.4395881  46.3836854  37.4979466  60.8652664
  47.0274309  37.8363845  60.5732313  27.2410598  38.7741308  63.1379074
  27.0586171  38.7488194  62.2851366  27.9760267  39.2440246  63.1767982
  27.3224662  38.8402670  63.0176992  43.3110272  39.0092818  60.2811961
  43.5465861  39.1538017  59.4538812  43.4599836  39.7735226  60.6743475
  43.3676076  39.1431872  60.2175565  30.3056350  35.4926311  69.6461182
  31.0296322  35.4779342  70.1326077  30.4072486  36.2021666  69.1483150
  30.4274559  35.5951014  69.6439969  37.6801299  38.9725396  74.5110129
  36.8874280  39.2868907  74.6962749  37.7950226  39.1876864  73.6730914
  37.5796710  39.0509232  74.4148464  40.3532618  35.6959387  58.8005145
  40.4479473  36.4348681  59.2544771  39.7291462  35.2676862  59.2339710
  40.2741648  35.7420707  58.9313293  38.6085092  38.8745599  69.4495426
  39.1823954  38.2372843  69.6043990  38.5299896  38.8749682  68.5805084
  38.6818327  38.7810711  69.3441837  27.2081508  35.6534809  63.2878140
  27.7855011  35.5171260  63.9270386  26.5095570  35.1970593  63.5423725
  27.1902530  35.5657075  63.4200430  33.9648811  37.3068864  61.5016623
  33.7068055  36.4740599  61.4747923  34.0197293  37.5326477  60.6609124
  33.9348589  37.2166636  61.3736760  39.0449861  29.4097315  61.6020716
  38.3406188  28.9206501  61.7604635  39.0934835  29.4219790  60.7309160
  38.9479912  29.3386963  61.4960056  32.9383523  34.8606627  61.9881518
  32.3633114  35.0198795  62.6245479  32.5619199  34.2242036  61.5249969
  32.7986335  34.7904440  62.0136077  36.6056811  33.3329976  66.8473897
  36.2171244  32.9084194  66.1926088  35.9411510  33.5812126  67.3550923
  36.4503739  33.3068697  66.8261765  46.2480081  33.0904981  59.6221727
  45.9916645  32.2784922  59.4319609  47.0909395  33.0982548  59.3951914
  46.3346106  32.9716978  59.5606544  22.6840342  34.5046702  60.0025959
  22.7700594  34.1278570  60.7839489  23.3116139  34.1307147  59.5245917
  22.7896893  34.3932184  60.0471436  40.4283173  27.0304605  64.3597881
  40.8093685  26.3482776  64.7465755  39.6246457  26.7414207  64.1773545
  40.3659635  26.8871653  64.3901937  43.9305240  40.2454577  69.4580279
  43.6943877  39.4142642  69.3392340  44.5748469  40.1940184  70.0435123
  43.9899911  40.1152265  69.5266173  33.5803658  41.0350098  60.1723016
  34.2177605  40.7961846  60.7174809  34.0058730  41.2387257  59.4376176
  33.7379824  41.0301108  60.1440173  28.2716300  43.2738435  64.0557319
  28.3120446  43.5453286  63.2277099  28.8310824  43.7980343  64.4715107
  28.3599646  43.3914190  63.9949208  34.3875013  29.5358803  74.2260489
  34.0728454  30.3058366  73.9630052  34.0664946  28.9729059  73.6412716
  34.2933932  29.5669072  74.1001839  44.9541660  40.0299026  65.5208574
  44.6487478  40.7627082  65.8821889  44.2347876  39.6236955  65.2401360
  44.8029003  40.0780759  65.5321711  35.9625130  41.5122521  61.8516802
  36.0364138  41.3497693  62.7058652  36.7794636  41.7012710  61.6077284
  36.0941489  41.5159263  61.9414827  50.6543453  36.6692026  64.8476918
  50.5867953  36.6887985  63.9779504  50.6399115  37.5122354  65.0732588
  50.6422209  36.7965761  64.7529395  29.7230887  41.8580384  58.8811245
  28.8969004  42.1042121  58.7545524  29.7842878  41.7792465  59.7473303
  29.6105054  41.8825333  58.9900190  31.9406910  27.9249325  59.8406686
  31.0729336  27.9971924  59.9064295  32.2282115  28.7271404  60.0294661
  31.8546658  28.0543472  59.8781452  41.0639799  28.0727184  68.1718007
  41.8093391  27.8836994  67.7581433  40.6477104  28.5985422  67.6131864
  41.1124773  28.1229329  68.0282581  34.5029716  44.4757264  56.5830275
  34.7928014  44.0846245  55.8589502  35.2333196  44.6573969  57.0235551
  34.6536600  44.4451078  56.5413082  48.4402070  35.4436413  63.1223512
  48.9909992  34.8104482  63.3620604  48.4246185  35.9751805  63.8139017
  48.5187266  35.4285361  63.2602371  35.0924461  39.2775010  67.6683406
  34.5936154  39.9890778  67.7468294  35.9024685  39.5975676  67.6301568
  35.1380568  39.4301858  67.6739974  32.4435631  46.4524646  59.6490425
  32.2235927  46.1622001  60.4417092  32.2230153  45.7939601  59.1208337
  32.3783225  46.3124355  59.6879334  31.3552578  38.5397963  61.9146127
  31.0665827  37.9135434  62.4491854  32.2235926  38.4818250  61.9810807
  31.4412830  38.4385507  62.0037081  42.1430476  33.6832746  62.2328109
  41.7995242  32.9623081  62.5835358  42.2423519  33.4746597  61.3906467
  42.1072519  33.5456949  62.1599789  34.6103587  47.8254036  58.4321117
  35.2627645  47.2930479  58.6612143  33.9129196  47.4722689  58.8188991
  34.6034305  47.6943559  58.5233285  31.5584852  40.1793214  57.8388492
  32.3130820  40.5606253  58.0523954  30.9655464  40.6304358  58.2935188
  31.5821565  40.3022041  57.9371370  34.0191519  32.1356054  72.9645704
  33.2091295  32.4413834  72.8535546  34.4966206  32.8561637  73.0798288
  33.9694998  32.2870655  72.9652775  32.8783078  41.3501775  63.2128607
  32.3563832  41.4902067  63.8980472  33.2657099  40.5912440  63.4030724
  32.8586779  41.2587299  63.3429684  29.8674262  31.4007584  57.2823562
  29.5799058  31.0308854  56.5455509  30.5544731  31.8702439  57.0207267
  29.9263160  31.4154553  57.1338638  34.3049404  38.3805794  58.6110098
  34.1092187  38.9880529  58.0170401  34.5283750  37.6873738  58.1301772
  34.3084045  38.3683320  58.4526179  32.7027934  35.2660532  58.7290967
  33.4250586  35.4301690  58.2694773  32.2235927  35.9870197  58.6230306
  32.7391665  35.3958762  58.6456581  40.6621442  31.6024331  64.1087651
  39.8232542  31.6285610  63.8725915  40.7325809  32.2495066  64.6892998
  40.5489835  31.7020457  64.1596768  30.3535551  37.6718605  67.8345106
  30.8656648  37.9502858  67.1853866  30.0671893  38.4107899  68.2007919
  30.3870414  37.8220958  67.7934984  39.1090720  28.5009708  58.8415267
  39.8117073  28.3017456  58.3635226  38.8434909  27.7285650  59.1484111
  39.1737352  28.3572674  58.8160709  44.5378965  36.8092318  61.3948893
  44.4512940  36.9647744  62.2483672  44.0829445  37.4530393  61.0208298
  44.4582222  36.9268073  61.4656000  27.4402457  32.1788796  58.1308843
  27.5418593  32.9814958  58.4589818  28.2358344  31.9776132  57.8331923
  27.5730363  32.2674695  58.1344198  33.8719276  29.7644993  67.8946148
  33.6802473  29.7800128  68.7445571  34.7217872  29.9608667  67.8712803
  33.9694998  29.7959344  68.0169443  28.2566189  32.2935975  65.8729964
  28.1151681  31.4419915  65.9974472  28.5406753  32.3364635  65.0492170
  28.2774035  32.1735725  65.7697589  38.4104781  34.1303065  60.0174453
  38.1639496  34.0498816  60.8511242  38.7389905  33.3456533  59.8236980
  38.4226025  34.0029330  60.1121976  42.3052830  40.8386424  63.8061234
  42.1667190  41.5367470  64.3109976  41.5252828  40.6835081  63.4497416
  42.1696057  40.9186591  63.8287508  40.6430915  37.1382800  70.0583616
  40.6378954  36.2662616  70.0626042  41.3491909  37.3370969  69.5853071
  40.7475919  37.0386674  69.9890651  34.3701809  36.8659783  69.4297436
  34.5145185  37.4460992  68.7940546  34.7177457  37.2436080  70.1347290
  34.4429270  37.0080487  69.4396431  36.5421726  36.0649952  67.2122567
  35.7945040  36.2580966  66.8070845  36.6963251  35.2395171  66.9746689
  36.4544154  35.9715063  67.1167973  33.4429564  45.0562555  66.2958463
  33.5919127  44.4965471  65.6431867  34.2229566  45.1354557  66.6790981
  33.5803657  44.9848121  66.2555412  35.9682864  45.2277198  67.5742953
  35.8926535  44.5586009  68.1293742  35.8972724  45.9294986  68.0883620
  35.9463471  45.2322105  67.7319802  36.7823503  29.9600502  68.1017971
  37.2396117  30.6924477  68.2290763  36.8579832  29.5366968  68.8605227
  36.8614473  30.0057741  68.2319048  29.0256494  30.2066322  69.1907415
  28.4898684  29.5946680  69.5068182  29.0874259  30.7814458  69.8441081
  28.9552127  30.2013250  69.3342842  41.2550829  23.1390378  61.9711814
  41.3734397  23.5966841  61.2379117  41.0813005  22.3335639  61.6848032
  41.2470000  23.0884150  61.8212748  36.6253111  43.7478197  58.4066559
  37.3903002  43.4787841  58.0849224  36.5231201  43.2628207  59.1236622
  36.7234607  43.6367762  58.4646387  34.6605881  31.9502606  64.9459795
  33.8701956  31.7694067  65.2677131  35.0566504  31.1729559  64.9290090
  34.6022757  31.8090067  64.9912343  40.0449567  39.5845037  62.6719241
  39.3694569  39.3530269  63.1732628  40.0541943  38.9766220  62.0461346
  39.9468072  39.4603962  62.6535393  37.1743711  34.4262866  69.4283294
  37.1102853  35.2872822  69.3003431  37.3140899  34.1094859  68.6278845
  37.1859181  34.5063032  69.2911507  35.8562805  37.1195005  63.5699497
  35.4325054  37.3199504  62.8338515  35.6807660  36.2723853  63.6823797
  35.7673686  37.0243786  63.4773187  35.3574499  48.6345518  66.0320954
  35.8470429  47.9356307  65.8496619  34.7858731  48.3369388  66.6197012
  35.3459029  48.4871742  66.0921995  31.1445250  37.6147056  59.0027469
  31.3009869  37.5493859  59.8583462  31.4845843  38.3895609  58.7906149
  31.2178485  37.7196254  59.0982064  37.6824395  36.9904940  57.8720833
  38.2239940  36.4875321  58.3359453  37.9970954  36.9370135  57.0610318
  37.8088792  36.9084361  57.8204645  41.5541502  41.2007587  74.9847745
  42.3676368  40.9292736  75.1452877  41.3936469  40.9015127  74.1807941
  41.6511451  41.1162513  74.8893151  35.8510845  42.3822291  55.1560861
  35.9203665  41.5236830  55.2953861  36.6299300  42.5994172  54.8279885
  35.9763695  42.2875155  55.1278018  38.8313664  31.8841244  67.9243133
  39.0455634  31.2452159  67.3706487  38.2147563  32.3287068  67.4950995
  38.7718993  31.8551388  67.7793564  40.2418332  44.8059993  59.3697354
  39.8498124  44.5026708  58.6520220  40.3971404  45.6429083  59.1802308
  40.2071922  44.8843829  59.2353851  27.7179512  34.7982007  59.3188237
  28.0978477  35.2166552  58.6548504  27.1434877  35.3795462  59.6257080
  27.6890837  34.9459866  59.2664978  40.9952752  33.4930310  68.8626440
  40.1829434  33.1856200  68.9439613  41.4542687  33.0129310  69.4269152
  40.9433137  33.3766802  68.9581034  40.4058007  41.3709982  59.3103385
  40.0472662  41.5424624  60.0867417  39.9196718  41.8323187  58.7531383
  40.2816704  41.4648953  59.3428654  38.2228393  24.9941180  62.9130476
  37.3521951  24.9679901  62.8663785  38.4768734  24.8218372  62.0956322
  38.1321953  24.9651324  62.7850613  38.0906260  34.8990381  73.6455143
  38.5605891  35.5232497  74.0323017  38.1368140  34.2307357  74.2048357
  38.1674136  34.8925061  73.7855214  35.2477533  27.0047408  64.3703946
  34.7316022  26.3127600  64.4955525  34.6871462  27.6718186  64.3166545
  35.0884047  27.0010666  64.3810012  37.3169767  27.5440369  66.1996799
  36.9301520  27.5689400  66.9810329  36.8302704  26.9782047  65.7471316
  37.1882276  27.4636119  66.2484703  41.5662746  42.2613878  70.2570585
  42.2042467  41.7674073  69.9233042  40.9236838  42.1891278  69.6722812
  41.5656973  42.1772886  70.1212940  43.2919746  34.1103023  64.8236501
  42.8647354  34.0229372  64.0684601  42.6545799  34.2180799  65.4091345
  43.1349354  34.1135683  64.7981943  36.9826909  24.4307354  68.4907059
  37.6120027  24.9667654  68.2128129  37.1512771  24.3384713  69.3420624
  37.1004703  24.4968716  68.5755587  36.7840823  29.2178549  70.7633470
  37.6114253  28.9463698  70.8192085  36.8048669  30.0139390  71.1197289
  36.9093673  29.2958303  70.8248653  41.6217003  42.9533686  66.8975942
  42.4109381  42.6022751  67.0178024  41.7960601  43.7670074  66.6352576
  41.7637284  43.0219543  66.8763810  31.3610313  36.3642412  63.9503731
  30.5198320  36.2646286  64.1582625  31.5700321  37.1337892  64.3018052
  31.2675006  36.4634455  64.0331046  28.8385880  33.9861948  61.7788482
  28.4442578  34.0604960  61.0038591  28.2825997  34.3719895  62.3296843
  28.6988693  34.0543723  61.7456142  40.4750827  26.9643242  61.4592361
  40.6800420  26.8965550  62.3049358  40.1477251  27.7702064  61.3913538
  40.4566075  27.0729183  61.5752016  35.1726978  34.2923811  63.2001329
  34.8690116  33.7379799  63.8011736  34.4706399  34.4716021  62.7129363
  35.0243188  34.2368593  63.2171034  34.2293075  31.6024331  57.7646030
  34.5052810  30.8843243  57.3523598  34.8291745  32.2009250  57.5567136
  34.3586340  31.5844701  57.6726792  33.2345329  41.5073531  67.9073426
  33.1265684  41.5175594  68.7735484  33.4441111  42.3328312  67.7178380
  33.2495440  41.6314606  68.0077518  43.7284515  27.5175007  60.9395126
  43.1158828  28.0045409  61.3248858  43.8248690  26.8418498  61.4832777
  43.6522412  27.4893315  61.0773984  37.7303596  29.2737848  56.0392625
  38.1847342  29.4448408  56.7640470  38.2043641  28.6605959  55.6390401
  37.8671916  29.2088733  56.0866387  31.2519121  38.7586174  65.3695364
  30.6607054  39.3995672  65.3398379  32.0140145  39.1823791  65.3426663
  31.2767382  38.9162012  65.3610511  31.6479744  29.9188172  66.0363382
  32.1081225  29.9927101  66.7738505  31.6935851  30.7169426  65.6863203
  31.7230299  30.0482319  66.0936138  33.2963094  30.5854866  70.6035409
  32.9048659  29.9388214  71.0391186  33.4648956  31.1766302  71.2229664
  33.2634004  30.5769134  70.7598115  47.3709543  38.5891944  66.3672642
  47.4292666  39.0378592  67.1132619  46.7376010  38.9990756  65.9302722
  47.2860838  38.7165678  66.4125191  41.0108637  44.2095485  62.8027388
  40.8128326  44.6986300  62.1083600  40.3896348  44.4136727  63.3811522
  40.8896202  44.3112024  62.7850612  35.0716616  35.9780382  57.1437633
  35.8158661  36.3654659  57.3820583  35.2177312  35.1337808  57.3078120
  35.2027201  35.9110855  57.2031602  36.9896191  27.7730641  62.1769494
  36.1432236  27.9453449  62.0510844  36.9867324  26.9679985  62.5135322
  36.8643341  27.6791670  62.2080621  38.0594492  31.5505856  63.0431552
  37.5854446  31.0247618  63.5536863  38.4312627  31.0035328  62.4746414
  38.0444381  31.3921852  63.0346699  28.4367522  33.5477362  68.4115098
  29.2993135  33.4473071  68.3252428  28.1059305  32.9672072  67.8500670
  28.5152718  33.4468989  68.3160504  44.3231222  36.6108231  64.4538333
  44.0829445  35.7714646  64.4580759  44.8023229  36.6908398  65.1779106
  44.3583406  36.4989631  64.5613135  39.9877991  32.4442410  56.1057306
  39.4601010  32.5271154  55.4163015  40.4473699  33.1860282  56.1021950
  39.9779842  32.5663073  56.0032001  46.3236409  33.3909688  62.4067592
  46.0846179  33.3505523  61.5688376  46.4870310  34.2380840  62.5333313
  46.3126713  33.5101773  62.3021074  42.9282439  37.7759638  68.3372637
  43.6516638  37.3232164  68.1583657  42.6632402  38.0564303  67.5544965
  42.9963713  37.7510606  68.1951352  31.7969308  32.3719811  65.0725516
  31.1722378  32.3838203  64.4651469  31.4614903  32.8479986  65.7216756
  31.6554800  32.4438328  65.0782084  28.5094983  40.4320271  66.5129280
  27.9794908  39.7412710  66.5624255  28.7820077  40.4230457  65.6841989
  28.4719706  40.3287403  66.3976696  38.7101229  37.8743516  66.4867652
  38.0958222  37.3301566  66.7816287  39.2268514  37.3607752  66.0073468
  38.6956891  37.7179925  66.4591880  37.9497526  38.9447786  64.2211950
  37.5225134  38.3197505  63.7877386  37.9422470  38.6622708  65.0470958
  37.8856667  38.8100567  64.2791778  31.0660053  33.9812959  67.2900384
  31.2253540  33.2256283  67.6952106  30.8852947  34.5303899  67.9441122
  31.0625412  33.9506773  67.4463090  39.0080356  26.1474195  67.8451174
  38.5120917  26.3437869  67.1542741  39.7649418  26.5466863  67.6739976
  39.0467181  26.2351928  67.7171311  36.2783236  29.8216541  64.4354484
  36.3025723  29.2876653  63.7467264  36.5294709  29.3133849  65.0980075
  36.3193154  29.6677444  64.4319129  23.7890825  37.1048036  63.8697629
  23.6834275  37.0594880  63.0049713  23.0391045  37.4501816  64.1511913
  23.6626428  37.1488944  63.7834958  32.5584558  28.5487359  63.8160229
  32.5982929  29.0496565  64.5294936  31.7334223  28.6397752  63.5466152
  32.4424084  28.6369175  63.8810767  34.7414171  38.1148099  71.9180523
  33.8909801  38.2519813  72.0538168  34.9042298  37.3811877  72.3628225
  34.6398034  38.0262200  72.0036123  33.9798921  35.0647869  66.1134128
  33.1490851  35.2321687  65.9069376  33.9250438  34.6883819  66.8983013
  33.8488336  35.0337600  66.1982656  31.7882705  28.5556762  71.7490539
  32.4135408  28.0118894  72.0219971  31.3333184  28.0751679  71.1798329
  31.8130965  28.4046243  71.7052132  32.3534965  33.3403460  56.6424246
  32.4937926  33.8375924  57.3452887  32.8517498  32.6389755  56.7838459
  32.4476046  33.3105439  56.7675825  45.3617753  36.7386049  66.8403186
  45.9535594  37.3783299  66.8721385  45.7976748  36.0409085  67.1295253
  45.5136184  36.7304399  66.8884019  37.1911143  41.1603421  67.4661080
  36.6836234  41.7139268  67.9101711  36.8937789  41.2211711  66.6479855
  37.0716028  41.2509732  67.4109537  39.3573325  29.5256741  66.3085743
  39.7828397  29.0729267  65.6969270  38.7430318  28.9716811  66.5850531
  39.3301971  29.3770717  66.2590769  28.8888175  36.4038412  57.2406368
  29.3980405  37.0002919  57.6217674  29.3622448  36.1364386  56.5582788
  29.0331551  36.4524227  57.1960891  37.7967548  25.9971840  59.7176320
  37.1535866  25.8469487  60.2861459  37.4566955  25.7514186  58.9525425
  37.6512625  25.9383963  59.6879336  42.3866895  33.9531267  59.1406329
  41.7158085  34.4960969  59.0119395  43.0806645  34.4226123  58.8988024
  42.3895762  34.1029538  59.0861857  36.4353628  46.0927979  64.3718087
  36.2119283  45.3346808  64.7402114  35.9463472  46.1226000  63.6498527
  36.3297077  45.9850204  64.3194828  42.5495022  30.4087151  62.0496702
  42.9022632  29.9816874  62.7242501  41.6909824  30.3237994  62.1797779
  42.4744467  30.3331891  62.1691713  31.2478707  33.0394671  60.1079549
  30.5290696  33.4558803  60.3752412  31.6191069  33.6048909  59.5571187
  31.1970639  33.1843952  60.0662356  40.5478288  33.6722519  65.9981544
  40.5276215  33.4905815  66.8516323  40.5957489  34.5434538  65.9741128
  40.5512929  33.7739058  66.1204839  38.4924618  40.2609711  71.9230021
  38.4520473  39.6159388  71.3375177  39.3047936  40.2046329  72.2355433
  38.6067771  40.1568678  71.8826970  35.0832085  46.3128437  61.8255172
  34.6692484  45.6502568  61.4359014  35.7679460  46.4606296  61.3050866
  35.1230457  46.2369095  61.6911669  38.4497379  45.4718523  62.5778788
  38.0513663  45.5820793  61.8099609  37.8348599  45.6800589  63.1605348
  38.2996269  45.5192091  62.5510088  43.9819082  25.5305563  62.9781015
  43.4749947  24.8234702  62.9102192  44.7786516  25.1998751  63.1082091
  44.0246321  25.3778714  62.9880010  39.8983098  32.0372175  58.8754678
  39.6696791  32.0604876  58.0333037  40.1581174  31.2129642  58.9949689
  39.9029286  31.9188255  58.7679876  34.1802326  33.8906648  68.4779779
  33.6681230  33.2827831  68.8364810  34.0081823  34.6063240  68.9453754
  34.0791963  33.9069947  68.5996002  29.0268041  32.3344223  71.1282140
  28.8570631  32.9945598  70.5830347  28.5833991  32.5450784  71.8494630
  28.9367375  32.4630205  71.1543770  32.9527861  30.5748721  60.1708874
  33.4285227  30.9365801  59.5359055  32.4516460  31.2305189  60.4509017
  32.9493220  30.7242910  60.1185615  38.0571397  31.8130893  70.9182034
  38.6142827  31.5844702  70.2860500  37.7332462  32.5736558  70.6417247
  38.0917807  31.8914729  70.7838531  25.9270106  35.2391089  66.3870630
  25.3796825  34.5691734  66.5051499  26.7162484  34.8720937  66.4514098
  25.9622289  35.0856075  66.4139331  35.7754514  34.8998546  71.8834041
  36.5265841  35.2150223  72.1973595  35.9677091  34.6977717  71.0567963
  35.9145928  34.9165928  71.8077437  42.6239804  31.0272112  59.1257837
  42.6234031  30.8720769  59.9842113  42.4195984  31.8735099  59.0699222
  42.5939582  31.1292733  59.2445776  24.6857075  34.4511897  63.5416653
  24.5078836  33.9988506  64.2671569  24.3976097  35.2538058  63.7255131
  24.6170028  34.5034454  63.6760156  40.3480656  35.7069614  62.7794044
  40.8434322  34.9892609  62.7398064  39.5380432  35.4040412  62.6648531
  40.3024550  35.5567260  62.7567769  35.7939268  39.5567427  54.9291048
  34.9850591  39.2334101  54.8824358  36.3014177  38.8500649  54.8619297
  35.7488935  39.4048744  54.9121342  26.4229545  36.9839620  60.6538412
  25.5575065  36.9725311  60.5421184  26.5228361  36.7969843  61.5009552
  26.3103712  36.9545682  60.7627357  42.4132475  38.4573301  65.4671172
  42.8387547  37.9347723  64.9141597  42.0489395  39.0554139  64.9459795
  42.4219078  38.4683529  65.3080182  32.0486555  46.7537519  64.2268518
  32.3633114  47.5673907  64.2346300  32.4579968  46.3687738  64.8950677
  32.1554653  46.8166221  64.3272610  39.0011075  42.1707566  61.7972330
  39.4722253  42.8847828  61.9662315  39.3371253  41.5706316  62.3332199
  39.1206190  42.1879030  61.9004706  41.0888059  43.7808879  73.9764402
  41.1985025  42.9917440  74.3321149  41.4178956  43.6914815  73.1738740
  41.1540465  43.6514732  73.9106793  35.9180570  26.9435036  68.7530425
  36.0508475  26.1466030  69.0811400  36.3025722  27.4701439  69.3328700
  35.9936898  26.9034953  68.8873928  39.6385021  41.9625500  68.5600023
  39.0905967  41.3383384  68.2920088  40.0998050  42.1519772  67.8444102
  39.6252230  41.8984550  68.4150454  38.9912925  23.8665362  65.3511518
  38.1858888  23.7563092  65.6679356  38.8619660  23.9677818  64.4941384
  38.8533058  23.8649033  65.2719558  42.4478885  30.0310854  65.9451215
  41.8641874  30.5320061  65.5328782  42.7683179  29.5240411  65.3115538
  42.4092061  30.0302689  65.7909722  34.9873684  28.9451449  56.2209890
  35.8089379  29.1149762  55.9791585  34.5243335  29.0998710  55.4976187
  35.0404847  28.9933182  56.0781534  33.5769016  26.9394211  67.0008318
  34.1213429  26.5985338  67.5912660  33.6305952  27.7979673  67.1429603
  33.6658136  27.0149471  67.1090192  29.3899575  40.7010627  63.8747126
  29.9944432  40.6606462  63.2460947  29.1826888  41.5481779  63.9051182
  29.4488472  40.8198630  63.7863243  39.2043347  42.9676573  65.0909364
  40.0241721  42.8239539  65.3525659  38.9237425  43.5922771  65.6325802
  39.2840091  43.0386925  65.2097303  24.6250857  39.6845245  63.7446049
  24.5275135  38.8741516  64.0536106  25.4079727  39.6637038  63.3592318
  24.7266994  39.5612335  63.7332912  55.6756998  50.6241424  58.0552240
  55.6451002  51.4786061  58.2270509  56.2738346  50.3236717  58.6138384
  55.7594155  50.7057921  58.1627042  48.8756682  49.7117075  62.8105170
  48.0194578  49.8725574  62.8614287  48.9224336  48.8409139  62.8310232
  48.7555794  49.6067877  62.8211237  43.2597822  59.2479793  58.5742402
  42.5080722  58.8695332  58.3458447  43.7083834  59.2798227  57.8261212
  43.2147489  59.1965400  58.4299904  48.7122782  59.6705163  54.0027949
  48.3774150  60.3482084  53.5672171  49.2249652  59.2810474  53.4144821
  48.7388363  59.7129741  53.8514741  48.2527073  61.6219431  59.9439061
  48.6366453  62.1906330  59.4043836  48.1886215  60.8968942  59.4644877
  48.3000501  61.5994895  59.7932923  44.8382578  59.2598185  60.8405175
  44.9392941  58.4498539  61.1502302  44.2424324  59.1655132  60.2104853
  44.7655117  59.1263213  60.7931413  53.4973572  53.1993726  56.3270550
  53.3813098  53.9501412  56.7562688  54.2929459  52.9417680  56.5766637
  53.5978162  53.2728573  56.4274642  38.0347623  55.2818472  60.4657508
  37.7997807  54.4486124  60.3589777  38.1733263  55.5623138  59.6518709
  38.0203285  55.2001975  60.3299863  40.3337710  47.4504203  63.3641816
  39.7142742  46.8596850  63.1951831  40.2321574  48.0415638  62.7306139
  40.2275386  47.4508285  63.2446805  45.3803898  57.1887749  57.6139892
  45.7019739  57.7292957  57.0101200  46.0275994  56.6184521  57.7462182
  45.5229953  57.1846925  57.5446928  47.4305606  49.1903744  57.6974279
  48.1285770  49.3691872  58.1895742  47.7457938  48.6674084  57.0744668
  47.5800943  49.1397516  57.6776289  40.0606843  50.9956484  65.6085385
  39.9365540  51.5818930  66.2435204  40.7125128  50.5016680  65.9097660
  40.1380492  51.0095289  65.7471314  47.6193541  55.5774189  57.6854070
  48.0587177  54.9691290  58.1308843  47.4698204  55.1981563  56.9139536
  47.6615007  55.4312660  57.6373238  45.0865184  54.1718201  64.8872896
  45.7314187  53.6790644  64.5683845  45.3266961  54.3142988  65.7138974
  45.2175769  54.1195643  64.9622429  45.6032469  44.5596141  61.7795554
  45.2735799  45.0107285  61.1099252  44.9277471  44.4812304  62.3268560
  45.4542906  44.6147276  61.7618777  51.2202878  53.9301371  54.6384840
  51.1354173  54.7862337  54.7834409  51.7087261  53.6545695  55.3066999
  51.2791775  54.0158692  54.7586921  52.8108877  40.5481664  60.0245164
  52.4962318  41.2385142  60.4565587  52.2935819  40.4926446  59.3230665
  52.6873347  40.6416552  59.9842113  52.1521311  50.5486165  56.1382575
  51.6232782  50.7645798  56.7979881  52.6746331  51.2422303  56.0583544
  52.1509764  50.6829302  56.2238174  44.0420919  54.4449382  54.9390043
  43.4578134  54.9499413  55.3455907  43.6391014  54.2191768  54.1986635
  43.8960222  54.4857630  54.8895068  39.5964947  60.1604143  61.7413714
  39.1132526  60.8854632  61.7173298  40.4088266  60.4580273  61.8523872
  39.6455695  60.3106496  61.7540994  48.4998133  50.6915034  53.4158963
  48.7394137  50.8993017  52.6034307  48.8213974  49.8872542  53.5247908
  48.5835291  50.6029135  53.3119516  42.4509145  60.6760319  61.8933994
  43.1529724  60.1612308  61.9506751  42.3706628  61.0034470  62.6980869
  42.5432905  60.6474545  62.0206786  41.7759920  56.8666671  61.4019602
  42.6148819  57.0989603  61.4493364  41.8071689  55.9970982  61.3326638
  41.9041638  56.7723617  61.3984247  47.8445207  42.0305159  56.9945638
  48.5731368  41.8521114  56.5483794  47.9340100  42.8723239  57.2052816
  47.9651869  42.1289037  56.9599156  51.8253508  52.9658546  60.8977932
  52.5811023  53.3990061  60.9366841  51.9315832  52.3163316  61.4712568
  51.9523678  52.9336030  60.9875958  37.8049768  53.5067837  65.8567329
  37.5388183  52.6906953  66.0158320  37.8188332  53.5520992  64.9862845
  37.7674490  53.3924741  65.7520811  54.7831162  43.8345651  63.8909763
  55.4257070  43.9043756  64.4771678  55.0354183  43.1674874  63.3889305
  54.9153294  43.7472000  63.9037042  41.7107515  48.3052921  52.4719087
  40.9965692  48.0191101  52.8841520  42.1951484  48.6449547  53.1125475
  41.6766878  48.3134571  52.6274722  57.9978025  53.5112744  60.5399972
  58.6594459  52.9503412  60.4395881  57.3569437  53.0164774  60.8652664
  58.0006893  53.3549153  60.5732313  48.8854833  56.8082875  52.8480896
  49.3005981  56.4767899  52.1565391  48.0546763  56.5751777  52.7201032
  48.8242842  56.7254131  52.7271743  38.2143182  54.2926616  63.1379074
  38.0318755  54.2673502  62.2851366  38.9492851  54.7625554  63.1767982
  38.2957246  54.3587978  63.0176992  54.2842856  54.5278126  60.2811961
  54.5198445  54.6723325  59.4538812  54.4332420  55.2920534  60.6743475
  54.3408659  54.6617180  60.2175565  56.1133313  53.3679792  58.1181565
  56.4441530  53.9007432  57.5121660  56.6866401  53.4218680  58.7743516
  56.2466992  53.4549361  58.1259347  51.3265202  51.2144695  58.8005145
  51.4212056  51.9533989  59.2544771  50.7024045  50.7862170  59.2339710
  51.2474232  51.2606015  58.9313293  38.1814092  51.1720117  63.2878140
  38.7587595  51.0356567  63.9270386  37.4828154  50.7155901  63.5423725
  38.1635113  51.0842383  63.4200430  51.5788223  53.0593434  52.0342097
  51.4968386  53.1295622  52.8997084  52.2167944  53.6223178  51.8425838
  51.6608060  53.1532405  52.1332047  44.9381394  52.8254172  61.5016623
  44.6800639  51.9925907  61.4747923  44.9929877  53.0511785  60.6609124
  44.9081172  52.7351944  61.3736760  50.0182444  44.9282623  61.6020716
  49.3138771  44.4391809  61.7604635  50.0667419  44.9405097  60.7309160
  49.9212496  44.8572271  61.4960056  43.9116106  50.3791935  61.9881518
  43.3365698  50.5384103  62.6245479  43.5351783  49.7427344  61.5249969
  43.7718919  50.3089748  62.0136077  47.5789395  48.8515284  66.8473897
  47.1903828  48.4269502  66.1926088  46.9144093  49.0997434  67.3550923
  47.4236323  48.8254005  66.8261765  57.2212664  48.6090289  59.6221727
  56.9649229  47.7970230  59.4319609  58.0641978  48.6167856  59.3951914
  57.3078690  48.4902286  59.5606544  33.6572925  50.0232010  60.0025959
  33.7433177  49.6463878  60.7839489  34.2848723  49.6492455  59.5245917
  33.7629476  49.9117492  60.0471436  51.4015757  42.5489913  64.3597881
  51.7826268  41.8668084  64.7465755  50.5979041  42.2599515  64.1773545
  51.3392218  42.4056961  64.3901937  48.6828333  53.0813889  55.0450704
  49.4968972  53.3728781  54.9333475  48.6187475  52.4273751  54.4708997
  48.7931072  53.0279083  54.9439541  44.5536242  56.5535406  60.1723016
  45.1910188  56.3147154  60.7174809  44.9791313  56.7572565  59.4376176
  44.7112408  56.5486416  60.1440173  39.2448884  58.7923743  64.0557319
  39.2853029  59.0638594  63.2277099  39.8043408  59.3165651  64.4715107
  39.3332230  58.9099498  63.9949208  45.1939057  51.7737696  54.5097905
  45.5784209  51.5545403  55.2614450  44.9450677  52.6000641  54.6398981
  45.2141129  51.8635842  54.6398981  46.9357713  57.0307829  61.8516802
  47.0096722  56.8683001  62.7058652  47.7527220  57.2198018  61.6077284
  47.0674072  57.0344571  61.9414827  40.6963470  57.3765692  58.8811245
  39.8701588  57.6227429  58.7545524  40.7575461  57.2977772  59.7473303
  40.5837637  57.4010641  58.9900190  42.9139494  43.4434633  59.8406686
  42.0461919  43.5157232  59.9064295  43.2014698  44.2456712  60.0294661
  42.8279242  43.5728780  59.8781452  52.0372383  43.5912492  68.1718007
  52.7825975  43.4022302  67.7581433  51.6209687  44.1170730  67.6131864
  52.0857357  43.6414637  68.0282581  45.4762299  59.9942572  56.5830275
  45.7660598  59.6031553  55.8589502  46.2065780  60.1759277  57.0235551
  45.6269183  59.9636386  56.5413082  43.4168215  61.9709954  59.6490425
  43.1968510  61.6807309  60.4417092  43.1962737  61.3124909  59.1208337
  43.3515809  61.8309663  59.6879334  42.3285162  54.0583271  61.9146127
  42.0398411  53.4320742  62.4491854  43.1968510  54.0003558  61.9810807
  42.4145414  53.9570815  62.0037081  53.1163060  49.2018054  62.2328109
  52.7727826  48.4808389  62.5835358  53.2156102  48.9931905  61.3906467
  53.0805103  49.0642257  62.1599789  45.5836171  63.3439344  58.4321117
  46.2360229  62.8115786  58.6612143  44.8861779  62.9907996  58.8188991
  45.5766888  63.2128867  58.5233285  42.5317435  55.6978522  57.8388492
  43.2863403  56.0791561  58.0523954  41.9388048  56.1489665  58.2935188
  42.5554149  55.8207349  57.9371370  53.5776089  55.6643758  57.7752097
  54.1434121  56.3236968  57.6910640  52.9303992  56.0093456  58.2468499
  53.5654845  55.8125700  57.8324853  43.8515662  56.8687083  63.2128607
  43.3296415  57.0087375  63.8980472  44.2389682  56.1097747  63.4030724
  43.8319363  56.7772607  63.3429684  40.8406846  46.9192892  57.2823562
  40.5531642  46.5494162  56.5455509  41.5277314  47.3887747  57.0207267
  40.8995743  46.9339861  57.1338638  50.0482667  58.6082542  57.1989176
  49.8069343  57.8750403  56.7916241  50.2284000  59.1569399  56.5455509
  50.0390291  58.5804934  57.0419399  45.2781988  53.8991102  58.6110098
  45.0824770  54.5065837  58.0170401  45.5016333  53.2059046  58.1301772
  45.2816629  53.8868628  58.4526179  43.6760518  50.7845840  58.7290967
  44.3983169  50.9486998  58.2694773  43.1968510  51.5055505  58.6230306
  43.7124248  50.9144070  58.6456581  51.6354025  47.1209639  64.1087651
  50.7965126  47.1470918  63.8725915  51.7058392  47.7680374  64.6892998
  51.5222419  47.2205765  64.1596768  41.3268134  53.1903912  67.8345106
  41.8389231  53.4688166  67.1853866  41.0404477  53.9293207  68.2007919
  41.3602997  53.3406266  67.7934984  50.0823303  44.0195016  58.8415267
  50.7849656  43.8202764  58.3635226  49.8167492  43.2470958  59.1484111
  50.1469936  43.8757982  58.8160709  55.5111549  52.3277626  61.3948893
  55.4245524  52.4833052  62.2483672  55.0562029  52.9715701  61.0208298
  55.4314806  52.4453381  61.4656000  38.4135041  47.6974104  58.1308843
  38.5151177  48.5000266  58.4589818  39.2090927  47.4961440  57.8331923
  38.5462946  47.7860003  58.1344198  44.8451860  45.2830301  67.8946148
  44.6535057  45.2985436  68.7445571  45.6950456  45.4793975  67.8712803
  44.9427582  45.3144652  68.0169443  39.2298773  47.8121283  65.8729964
  39.0884265  46.9605223  65.9974472  39.5139336  47.8549943  65.0492170
  39.2506619  47.6921033  65.7697589  49.3837365  49.6488373  60.0174453
  49.1372079  49.5684124  60.8511242  49.7122488  48.8641841  59.8236980
  49.3958609  49.5214638  60.1121976  54.7738787  55.7149986  54.5677733
  54.3945595  54.9287124  54.5607023  54.1105032  56.2636843  54.4249377
  54.6197262  55.6794810  54.5458530  47.7556087  45.4785810  68.1017971
  48.2128701  46.2109785  68.2290763  47.8312415  45.0552276  68.8605227
  47.8347057  45.5243049  68.2319048  39.9989078  45.7251630  69.1907415
  39.4631267  45.1131988  69.5068182  40.0606843  46.2999766  69.8441081
  39.9284711  45.7198558  69.3342842  52.2283413  38.6575686  61.9711814
  52.3466981  39.1152149  61.2379117  52.0545588  37.8520947  61.6848032
  52.2202584  38.6069458  61.8212748  47.5985695  59.2663505  58.4066559
  48.3635586  58.9973149  58.0849224  47.4963785  58.7813515  59.1236622
  47.6967190  59.1553070  58.4646387  45.6338465  47.4687914  64.9459795
  44.8434539  47.2879374  65.2677131  46.0299087  46.6914867  64.9290090
  45.5755341  47.3275375  64.9912343  50.1204355  56.2975689  50.3866509
  50.8877341  56.3575814  49.9772361  49.6735664  55.7256130  49.9022827
  50.1677783  56.2212264  50.2544219  51.0182151  55.1030345  62.6719241
  50.3427153  54.8715577  63.1732628  51.0274527  54.4951527  62.0461346
  50.9200655  54.9789270  62.6535393  53.0198886  57.9595477  54.9029419
  53.1018723  58.7662463  54.5790870  53.5048628  57.9791436  55.6270192
  53.1036043  58.0816139  54.9616318  46.8295389  52.6380313  63.5699497
  46.4057638  52.8384812  62.8338515  46.6540244  51.7909161  63.6823797
  46.7406269  52.5429094  63.4773187  42.1177834  53.1332364  59.0027469
  42.2742453  53.0679167  59.8583462  42.4578427  53.9080917  58.7906149
  42.1911069  53.2381562  59.0982064  48.6556978  52.5090248  57.8720833
  49.1972524  52.0060629  58.3359453  48.9703537  52.4555443  57.0610318
  48.7821375  52.4269669  57.8204645  46.8243428  57.9007599  55.1560861
  46.8936248  57.0422138  55.2953861  47.6031883  58.1179480  54.8279885
  46.9496278  57.8060463  55.1278018  49.8046248  47.4026552  67.9243133
  50.0188217  46.7637467  67.3706487  49.1880147  47.8472376  67.4950995
  49.7451577  47.3736696  67.7793564  51.2150916  60.3245301  59.3697354
  50.8230707  60.0212016  58.6520220  51.3703988  61.1614391  59.1802308
  51.1804506  60.4029137  59.2353851  38.6912095  50.3167315  59.3188237
  39.0711060  50.7351860  58.6548504  38.1167460  50.8980770  59.6257080
  38.6623420  50.4645174  59.2664978  51.3790590  56.8895290  59.3103385
  51.0205245  57.0609932  60.0867417  50.8929301  57.3508495  58.7531383
  51.2549287  56.9834261  59.3428654  49.1960976  40.5126488  62.9130476
  48.3254534  40.4865209  62.8663785  49.4501318  40.3403680  62.0956322
  49.1054537  40.4836632  62.7850613  46.1678956  52.5694455  51.8503619
  46.4571481  53.3459337  52.1247193  46.2550755  52.0583186  52.5518118
  46.2233212  52.6086373  51.9946117  46.2210117  42.5232716  64.3703946
  45.7048605  41.8312908  64.4955525  45.6604046  43.1903493  64.3166545
  46.0616630  42.5195974  64.3810012  48.2902350  43.0625676  66.1996799
  47.9034104  43.0874708  66.9810329  47.8035288  42.4967355  65.7471316
  48.1614859  42.9821427  66.2484703  54.2652330  49.6288331  64.8236501
  53.8379938  49.5414680  64.0684601  53.6278383  49.7366107  65.4091345
  54.1081937  49.6320991  64.7981943  47.9559492  39.9492662  68.4907059
  48.5852610  40.4852962  68.2128129  48.1245355  39.8570021  69.3420624
  48.0737287  40.0154024  68.5755587  42.3342897  51.8827719  63.9503731
  41.4930903  51.7831594  64.1582625  42.5432905  52.6523200  64.3018052
  42.2407589  51.9819763  64.0331046  39.8118464  49.5047256  61.7788482
  39.4175162  49.5790268  61.0038591  39.2558581  49.8905203  62.3296843
  39.6721276  49.5729031  61.7456142  46.1459562  49.8109119  63.2001329
  45.8422699  49.2565107  63.8011736  45.4438982  49.9901329  62.7129363
  45.9975771  49.7553901  63.2171034  45.2025659  47.1209638  57.7646030
  45.4785393  46.4028551  57.3523598  45.8024328  47.7194558  57.5567136
  45.3318923  47.1030009  57.6726792  54.7017098  43.0360315  60.9395126
  54.0891412  43.5230717  61.3248858  54.7981273  42.3603806  61.4832777
  54.6254996  43.0078623  61.0773984  48.7036179  44.7923156  56.0392625
  49.1579926  44.9633716  56.7640470  49.1776225  44.1791267  55.6390401
  48.8404499  44.7274041  56.0866387  42.2251705  54.2771482  65.3695364
  41.6339638  54.9180980  65.3398379  42.9872728  54.7009099  65.3426663
  42.2499965  54.4347320  65.3610511  42.6212327  45.4373480  66.0363382
  43.0813809  45.5112409  66.7738505  42.6668434  46.2354734  65.6863203
  42.6962883  45.5667627  66.0936138  46.0449199  51.4965690  57.1437633
  46.7891244  51.8839966  57.3820583  46.1909895  50.6523116  57.3078120
  46.1759784  51.4296163  57.2031602  47.9628775  43.2915949  62.1769494
  47.1164820  43.4638757  62.0510844  47.9599907  42.4865293  62.5135322
  47.8375925  43.1976978  62.2080621  49.0327075  47.0691163  63.0431552
  48.5587029  46.5432926  63.5536863  49.4045211  46.5220636  62.4746414
  49.0176964  46.9107160  63.0346699  39.4100105  49.0662670  68.4115098
  40.2725718  48.9658379  68.3252428  39.0791888  48.4857379  67.8500670
  39.4885302  48.9654297  68.3160504  50.9610575  47.9627718  56.1057306
  50.4333593  48.0456462  55.4163015  51.4206283  48.7045590  56.1021950
  50.9512425  48.0848380  56.0032001  57.2968993  48.9094996  62.4067592
  57.0578763  48.8690831  61.5688376  57.4602894  49.7566148  62.5333313
  57.2859296  49.0287081  62.3021074  42.7701891  47.8905119  65.0725516
  42.1454961  47.9023511  64.4651469  42.4347486  48.3665294  65.7216756
  42.6287383  47.9623636  65.0782084  39.4827567  55.9505579  66.5129280
  38.9527491  55.2598018  66.5624255  39.7552660  55.9415765  65.6841989
  39.4452289  55.8472711  66.3976696  50.5147657  56.5331282  55.2366963
  51.2381856  56.9989395  55.0931536  50.0748248  56.6004891  54.4864560
  50.5563350  56.6115118  55.1051744  42.0392637  49.4998267  67.2900384
  42.1986123  48.7441591  67.6952106  41.8585530  50.0489207  67.9441122
  42.0357996  49.4692081  67.4463090  49.9812940  41.6659503  67.8451174
  49.4853501  41.8623177  67.1542741  50.7382002  42.0652171  67.6739976
  50.0199764  41.7537236  67.7171311  47.2515819  45.3401848  64.4354484
  47.2758306  44.8061961  63.7467264  47.5027293  44.8319157  65.0980075
  47.2925738  45.1862752  64.4319129  34.7623409  52.6233343  63.8697629
  34.6566858  52.5780188  63.0049713  34.0123629  52.9687124  64.1511913
  34.6359012  52.6674252  63.7834958  43.5317141  44.0672667  63.8160229
  43.5715513  44.5681873  64.5294936  42.7066806  44.1583060  63.5466152
  43.4156667  44.1554483  63.8810767  44.9531505  50.5833177  66.1134128
  44.1223434  50.7506995  65.9069376  44.8983022  50.2069127  66.8983013
  44.8220920  50.5522908  66.1982656  42.7615288  44.0742069  71.7490539
  43.3867991  43.5304202  72.0219971  42.3065768  43.5936987  71.1798329
  42.7863549  43.9231551  71.7052132  43.3267549  48.8588768  56.6424246
  43.4670510  49.3561232  57.3452887  43.8250081  48.1575062  56.7838459
  43.4208630  48.8290747  56.7675825  43.3567771  49.7255879  53.9716822
  43.9912851  50.3216304  53.9066284  43.4393382  49.4259337  54.7862692
  43.4624322  49.7696787  54.0819909  50.3305909  45.0442048  66.3085743
  50.7560980  44.5914575  65.6969270  49.7162902  44.4902119  66.5850531
  50.3034554  44.8956025  66.2590769  39.8620759  51.9223720  57.2406368
  40.3712988  52.5188227  57.6217674  40.3355031  51.6549694  56.5582788
  40.0064135  51.9709535  57.1960891  50.7751507  60.5951987  55.3965024
  50.0580817  60.4212849  54.9312261  51.4258245  60.3604559  54.8640510
  50.7653357  60.5347779  55.2494242  48.7700132  41.5157148  59.7176320
  48.1268450  41.3654795  60.2861459  48.4299539  41.2699494  58.9525425
  48.6245209  41.4569271  59.6879336  53.3599478  49.4716575  59.1406329
  52.6890668  50.0146277  59.0119395  54.0539228  49.9411430  58.8988024
  53.3628346  49.6214846  59.0861857  53.5227606  45.9272459  62.0496702
  53.8755216  45.5002182  62.7242501  52.6642407  45.8423302  62.1797779
  53.4477050  45.8517199  62.1691713  42.2211291  48.5579978  60.1079549
  41.5023280  48.9744111  60.3752412  42.5923653  49.1234217  59.5571187
  42.1703222  48.7029260  60.0662356  51.5210871  49.1907827  65.9981544
  51.5008799  49.0091122  66.8516323  51.5690072  50.0619846  65.9741128
  51.5245512  49.2924366  66.1204839  47.9957865  47.5977978  55.4452928
  47.4022704  47.9194975  54.8937495  48.0333143  46.7519074  55.2374034
  47.9132254  47.5202307  55.3335700  54.9551666  41.0490871  62.9781015
  54.4482530  40.3420010  62.9102192  55.7519099  40.7184059  63.1082091
  54.9978905  40.8964022  62.9880010  50.8715682  47.5557483  58.8754678
  50.6429375  47.5790184  58.0333037  51.1313758  46.7314950  58.9949689
  50.8761870  47.4373563  58.7679876  40.0000625  47.8529531  71.1282140
  39.8303215  48.5130906  70.5830347  39.5566575  48.0636092  71.8494630
  39.9099958  47.9815513  71.1543770  43.9260444  46.0934029  60.1708874
  44.4017810  46.4551109  59.5359055  43.4249044  46.7490497  60.4509017
  43.9225803  46.2428218  60.1185615  57.1571806  55.5655797  55.9621879
  57.5405411  56.3147153  56.1919976  56.3615919  55.8121617  55.7033868
  57.0965588  55.7125491  55.9579453  36.9002689  50.7576397  66.3870630
  36.3529409  50.0877042  66.5051499  37.6895067  50.3906245  66.4514098
  36.9354873  50.6041383  66.4139331  45.9687097  48.2375229  53.5382258
  46.3486062  48.2554858  52.7533373  45.2279693  48.6829218  53.4173105
  45.9155935  48.3057004  53.4045826  53.5972388  46.5457420  59.1257837
  53.5966614  46.3906077  59.9842113  53.3928568  47.3920407  59.0699222
  53.5672166  46.6478041  59.2445776  35.6589659  49.9697205  63.5416653
  35.4811420  49.5173814  64.2671569  35.3708681  50.7723366  63.7255131
  35.5902612  50.0219762  63.6760156  51.3213240  51.2254922  62.7794044
  51.8166905  50.5077917  62.7398064  50.5113016  50.9225720  62.6648531
  51.2757133  51.0752568  62.7567769  46.7671851  55.0752735  54.9291048
  45.9583174  54.7519409  54.8824358  47.2746760  54.3685957  54.8619297
  46.7221518  54.9234052  54.9121342  37.3962129  52.5024928  60.6538412
  36.5307648  52.4910619  60.5421184  37.4960945  52.3155151  61.5009552
  37.2836296  52.4730990  60.7627357  46.8913153  42.4620344  68.7530425
  47.0241059  41.6651338  69.0811400  47.2758306  42.9886747  69.3328700
  46.9669482  42.4220261  68.8873928  49.9645508  39.3850670  65.3511518
  49.1591472  39.2748400  65.6679356  49.8352244  39.4863126  64.4941384
  49.8265641  39.3834340  65.2719558  53.4211469  45.5496162  65.9451215
  52.8374458  46.0505369  65.5328782  53.7415763  45.0425718  65.3115538
  53.3824644  45.5487997  65.7909722  44.5501600  42.4579519  67.0008318
  45.0946013  42.1170646  67.5912660  44.6038536  43.3164981  67.1429603
  44.6390719  42.5334779  67.1090192  40.3632159  56.2195935  63.8747126
  40.9677016  56.1791770  63.2460947  40.1559471  57.0667087  63.9051182
  40.4221056  56.3383938  63.7863243  35.5983441  55.2030553  63.7446049
  35.5007719  54.3926824  64.0536106  36.3812311  55.1822346  63.3592318
  35.6999577  55.0797643  63.7332912  59.4730717  66.2100342  53.4158963
  59.7126720  66.4178325  52.6034307  59.7946558  65.4057850  53.5247908
  59.5567875  66.1214443  53.3119516  54.7821007  58.1393737  57.2618501
  55.5366975  58.5072054  57.0235552  54.6048542  58.5133292  58.0297681
  54.8675485  58.2491925  57.3403390  53.1378072  60.5464056  53.9596614
  52.9553645  60.7635937  53.1337607  54.0003685  60.6603069  54.0155229
  53.2382661  60.5953954  53.8451101  58.8177791  57.5490467  56.9945638
  59.5463951  57.3706422  56.5483794  58.9072684  58.3908547  57.2052816
  58.9384453  57.6474345  56.9599156  52.6840099  63.8238229  52.4719087
  51.9698276  63.5376408  52.8841520  53.1684067  64.1634855  53.1125475
  52.6499462  63.8319879  52.6274722  51.8139430  62.4378200  57.2823562
  51.5264225  62.0679470  56.5455509  52.5009898  62.9073055  57.0207267
  51.8728327  62.4525169  57.1338638  49.3867624  63.2159412  58.1308843
  49.4883761  64.0185574  58.4589818  50.1823511  63.0146748  57.8331923
  49.5195530  63.3045311  58.1344198  57.1411539  68.0879763  51.8503619
  57.4304064  68.8644645  52.1247193  57.2283338  67.5768494  52.5518118
  57.1965796  68.1271681  51.9946117  53.9276224  61.7515546  51.1298201
  53.5789028  62.4035271  51.5929750  53.4472669  61.7372659  50.4022072
  53.8046467  61.8458599  51.0909292  54.3300355  65.2441187  53.9716822
  54.9645434  65.8401612  53.9066284  54.4125965  64.9444645  54.7862692
  54.4356906  65.2882095  54.0819909  55.9079337  61.1755162  53.9462264
  56.2295179  60.6958245  53.2921527  56.1706281  61.9854809  53.7553076
  55.9945363  61.2245060  53.8217756  58.9690449  63.1163286  55.4452928
  58.3755288  63.4380283  54.8937495  59.0065726  62.2704382  55.2374034
  58.8864838  63.0387615  55.3335700  56.9419681  63.7560537  53.5382258
  57.3218646  63.7740166  52.7533373  56.2012277  64.2014526  53.4173105
  56.8888519  63.8242311  53.4045826  56.9338852  59.9822065  56.2209890
  57.7554546  60.1520378  55.9791585  56.4708502  60.1369326  55.4976187
  56.9870014  60.0303798  56.0781534  21.0083479   5.1487309  45.5082449
  20.2566378   4.7702847  45.2798494  21.4569491   5.1805742  44.7601259
  20.9633146   5.0972916  45.3639951  26.4608439   5.5712678  40.9367996
  26.1259807   6.2489600  40.5012218  26.9735309   5.1817989  40.3484868
  26.4874020   5.6137256  40.7854787  26.0012730   7.5226947  46.8779108
  26.3852109   8.0913845  46.3383883  25.9371871   6.7976457  46.3984924
  26.0486157   7.5002410  46.7272970  29.4694160  -2.3283365  52.3876869
  30.0150120  -1.6498279  52.4470839  29.4111037  -2.4695905  51.5278450
  29.5410075  -2.2491364  52.2688930  22.5868235   5.1605701  47.7745221
  22.6878598   4.3506055  48.0842349  21.9909980   5.0662647  47.1444900
  22.5140774   5.0270729  47.7271460  31.2459229  -0.8998758  43.2610597
  31.1298755  -0.1491072  43.6902735  32.0415116  -1.1574805  43.5106684
  31.3463818  -0.8263911  43.3614688  22.4268975  10.0783290  49.1760077
  23.0706430  10.5196454  49.5656236  22.7525230   9.2736716  49.0890336
  22.5700803  10.0248485  49.2205555  15.7833279   1.1825987  47.3997555
  15.5483464   0.3493640  47.2929824  15.9218920   1.4630653  46.5858756
  15.7688942   1.1009491  47.2639910  23.1289554   3.0895265  44.5479939
  23.4505395   3.6300472  43.9441247  23.7761651   2.5192036  44.6802229
  23.2715610   3.0854440  44.4786974  25.1791262  -4.9088740  44.6314326
  25.8771427  -4.7300613  45.1235789  25.4943595  -5.4318401  44.0084715
  25.3286600  -4.9594968  44.6116336  25.3679198   1.4781705  44.6194117
  25.8072833   0.8698805  45.0648890  25.2183861   1.0989078  43.8479582
  25.4100664   1.3320176  44.5713285  22.8350841   0.0725717  51.8212943
  23.4799843  -0.4201840  51.5023891  23.0752618   0.2150503  52.6479021
  22.9661426   0.0203159  51.8962476  25.3736932   2.9180622  51.4719835
  25.6560175   2.1232028  51.2506591  26.1023093   3.3961210  51.4924896
  25.5226496   2.8715219  51.4422851  28.9688534  -0.1691114  41.5724887
  28.8839830   0.6869853  41.7174455  29.4572918  -0.4446790  42.2407046
  29.0277432  -0.0833793  41.6926968  29.9006968  -3.5506320  43.0722622
  29.3718439  -3.3346686  43.7319928  30.4231988  -2.8570181  42.9923591
  29.8995421  -3.4163183  43.1578221  35.3555021   2.0239985  48.4455666
  34.5252724   2.2350628  48.6089083  35.3064273   1.1977039  48.1697950
  35.2261756   1.9329591  48.4293032  21.7906575   0.3456897  41.8730090
  21.2063791   0.8506928  42.2795954  21.3876671   0.1199284  41.1326682
  21.6445879   0.3865145  41.8235115  17.3450604   6.0611658  48.6753761
  16.8618182   6.7862148  48.6513345  18.1573922   6.3587788  48.7863919
  17.3941352   6.2114012  48.6881040  23.4164758   4.8543839  51.2803576
  22.8991700   4.4951254  50.6764884  24.1139149   4.3306013  51.2909642
  23.4430339   4.7241527  51.1933834  27.0728350   5.3038653  57.2419749
  27.1611696   5.1164793  58.0897959  27.5018063   4.6576082  56.8424595
  27.1490452   5.1801660  57.3091500  24.6398810   4.5869813  56.2237411
  24.0769645   4.1742423  56.7477072  25.4019833   4.5122718  56.6430554
  24.6693258   4.5147213  56.3630411  26.2483790  -3.4077451  40.3499010
  26.4879794  -3.1999467  39.5374353  26.5699631  -4.2119942  40.4587955
  26.3320948  -3.4963350  40.2459563  20.1994801   6.5767834  48.8274041
  20.9015381   6.0619823  48.8846798  20.1192284   6.9041985  49.6320916
  20.2918562   6.5482060  48.9546833  19.5245577   2.7674186  48.3359649
  20.3634476   2.9997119  48.3833411  19.5557346   1.8978497  48.2666684
  19.6527294   2.6731132  48.3324294  20.1498280   3.1875061  52.6372955
  20.6896505   3.0446192  53.3076327  19.4668226   3.5871812  53.0056981
  20.1290434   3.2254732  52.7907376  29.5739165  -1.1333938  47.8317979
  30.3296680  -0.7002424  47.8706888  29.6801489  -1.7829169  48.4052615
  29.7009335  -1.1656454  47.9216005  32.6119336   2.6939339  48.5820382
  32.1754568   2.6976081  49.3379353  32.2782251   3.3744838  48.1499959
  32.4981956   2.7951795  48.6301215  27.3418803   6.6457774  53.5529988
  26.5434048   6.4057274  53.8103856  27.7904814   6.6972167  54.2997036
  27.2893414   6.6180165  53.7014912  35.7463682  -0.5879741  47.4740019
  36.4080116  -1.1489073  47.3735928  35.1055094  -1.0827710  47.7992710
  35.7492549  -0.7443332  47.5072359  26.6340490   2.7090390  39.7820942
  27.0491638   2.3775414  39.0905438  25.8032419   2.4759293  39.6541079
  26.5728498   2.6261646  39.6611790  15.9628838   0.1934131  50.0719120
  15.7804412   0.1681017  49.2191413  16.6978507   0.6633069  50.1108029
  16.0442902   0.2595494  49.9517039  32.0328513   0.4285641  47.2152008
  32.2684102   0.5730840  46.3878859  32.1818076   1.1928049  47.6083522
  32.0894316   0.5624696  47.1515612  33.8618969  -0.7312693  45.0521612
  34.1927187  -0.1985053  44.4461707  34.4352058  -0.6773805  45.7083563
  33.9952649  -0.6443124  45.0599394  29.0750859  -2.8847790  45.7345192
  29.1697713  -2.1458496  46.1884817  28.4509702  -3.3130315  46.1679756
  28.9959889  -2.8386469  45.8653339  29.3273880  -1.0399050  38.9682144
  29.2454042  -0.9696863  39.8337131  29.9653600  -0.4769306  38.7765885
  29.4093717  -0.9460079  39.0672093  22.6867051  -1.2738312  48.4356670
  22.4286295  -2.1066577  48.4087970  22.7415534  -1.0480699  47.5949171
  22.6566829  -1.3640541  48.3076807  26.4313990  -1.0178596  41.9790750
  27.2454629  -0.7263703  41.8673522  26.3673131  -1.6718734  41.4049043
  26.5416729  -1.0713401  41.8779588  32.6523480   1.6647400  56.3920326
  32.4162118   0.8335465  56.2732387  33.2966709   1.6133007  56.9775170
  32.7118151   1.5345088  56.4606220  22.3021898   2.4542921  47.1063062
  22.9395845   2.2154669  47.6514856  22.7276970   2.6580080  46.3716223
  22.4598065   2.4493932  47.0780220  16.9934541   4.6931258  50.9897366
  17.0338686   4.9646109  50.1617146  17.5529065   5.2173166  51.4055154
  17.0817887   4.8107013  50.9289254  22.9424713  -2.3254789  41.4437952
  23.3269866  -2.5447082  42.1954497  22.6936334  -1.4991843  41.5739028
  22.9626786  -2.2356643  41.5739028  33.6759901   1.4491849  52.4548621
  33.3705718   2.1819906  52.8161936  32.9566117   1.0429778  52.1741407
  33.5247243   1.4973582  52.4661758  24.6843370   2.9315344  48.7856849
  24.7582379   2.7690516  49.6398699  25.5012877   3.1205534  48.5417330
  24.8159729   2.9352086  48.8754874  18.4449127   3.2773207  45.8151292
  17.6187245   3.5234944  45.6885571  18.5061118   3.1985288  46.6813350
  18.3323294   3.3018156  45.9240237  23.2247956   5.8950087  43.5170322
  23.5146254   5.5039068  42.7929549  23.9551437   6.0766792  43.9575597
  23.3754840   5.8643901  43.4753129  23.8142701   0.6967833  54.6023453
  23.3154395   1.4083601  54.6808341  24.6242925   1.0168500  54.5641615
  23.8598808   0.8494682  54.6080021  21.1653872   7.8717470  46.5830472
  20.9454167   7.5814824  47.3757139  20.9448394   7.2132425  46.0548384
  21.1001466   7.7317178  46.6219381  20.0770819  -0.0409214  48.8486173
  19.7884067  -0.6671743  49.3831901  20.9454167  -0.0988927  48.9150854
  20.1631071  -0.1421670  48.9377128  23.3321827   9.2446859  45.3661164
  23.9845885   8.7123302  45.5952190  22.6347436   8.8915512  45.7529038
  23.3252545   9.1136382  45.4573332  20.2803092   1.5986037  44.7728539
  21.0349060   1.9799076  44.9864001  19.6873705   2.0497181  45.2275235
  20.3039806   1.7214864  44.8711417  31.3261746   1.5651274  44.7092143
  31.8919778   2.2244483  44.6250686  30.6789649   1.9100972  45.1808546
  31.3140502   1.7133215  44.7664900  21.6001319   2.7694598  50.1468654
  21.0782072   2.9094890  50.8320519  21.9875339   2.0105263  50.3370771
  21.5805020   2.6780122  50.2769730  27.7968324   4.5090058  44.1329223
  27.5555000   3.7757918  43.7256288  27.9769657   5.0576915  43.4795556
  27.7875948   4.4812449  43.9759446  23.0267644  -0.2001382  45.5450145
  22.8310427   0.4073352  44.9510448  23.2501990  -0.8933439  45.0641819
  23.0302285  -0.2123857  45.3866226  21.4246174  -3.3146645  45.6631013
  22.1468826  -3.1505486  45.2034819  20.9454167  -2.5936980  45.5570353
  21.4609905  -3.1848415  45.5796627  33.2597206  -1.7714859  48.3288940
  33.1731180  -1.6159433  49.1823719  32.8047686  -1.1276783  47.9548345
  33.1800462  -1.6539104  48.3996047  31.0271071   2.2579247  50.7401281
  30.8885430   2.9560293  51.2450023  30.2471069   2.1027904  50.3837463
  30.8914298   2.3379414  50.7627555  22.1647804   6.4755378  53.2298509
  22.3137368   5.9158294  52.5771914  22.9447806   6.5547380  53.6131028
  22.3021898   6.4040944  53.1895459  32.5224444   1.6157501  41.5017780
  32.1431252   0.8294639  41.4947069  31.8590689   2.1644358  41.3589424
  32.3682918   1.5802325  41.4798577  24.6901105   6.6470021  54.5083000
  24.6144776   5.9778832  55.0633789  24.6190964   7.3487810  55.0223666
  24.6681712   6.6514929  54.6659848  25.3471352   5.1671020  45.3406606
  26.1121243   4.8980664  45.0189270  25.2449442   4.6821031  46.0576669
  25.4452847   5.0560585  45.3986434  27.8690012   2.1983204  37.3206556
  28.6362997   2.2583329  36.9112407  27.4221321   1.6263645  36.8362874
  27.9163439   2.1219780  37.1884266  28.7667808   1.0037860  49.6059288
  28.0912810   0.7723092  50.1072675  28.7760184   0.3959043  48.9801393
  28.6686312   0.8796785  49.5875440  30.7684542   3.8602992  41.8369466
  30.8504380   4.6669978  41.5130917  31.2534284   3.8798951  42.5610239
  30.8521700   3.9823655  41.8956364  24.5781046  -1.4612172  50.5039544
  24.1543295  -1.2607673  49.7678562  24.4025901  -2.3083324  50.6163844
  24.4891926  -1.5563390  50.4113234  24.0792739  10.0538341  52.9661001
  24.5688669   9.3549130  52.7836666  23.5076971   9.7562211  53.5537058
  24.0677269   9.9064565  53.0262042  19.8663491  -0.9660120  45.9367516
  20.0228110  -1.0313318  46.7923508  20.2064084  -0.1911568  45.7246196
  19.9396725  -0.8610922  46.0322110  26.4042635  -1.5902237  44.8060880
  26.9458181  -2.0931856  45.2699500  26.7189194  -1.6437042  43.9950365
  26.5307032  -1.6722816  44.7544692  24.5729085   3.8015115  42.0900908
  24.6421905   2.9429653  42.2293908  25.3517540   4.0186996  41.7619932
  24.6981935   3.7067979  42.0618065  28.9636572   6.2252816  46.3037401
  28.5716364   5.9219531  45.5860267  29.1189645   7.0621906  46.1142355
  28.9290162   6.3036653  46.1693898  29.1276247   2.7902805  46.2443431
  28.7690902   2.9617448  47.0207464  28.6414958   3.2516010  45.6871430
  29.0034944   2.8841776  46.2768700  23.9164613  -1.5298030  38.7843666
  24.2057137  -0.7533147  39.0587240  24.0036411  -2.0409298  39.4858165
  23.9718869  -1.4906111  38.9286164  30.2880987   3.6806701  57.1910632
  30.9260707   3.1866896  56.8573088  29.6455078   3.6084101  56.6062859
  30.2875213   3.5965709  57.0552987  30.3435243   4.3726509  53.8315989
  31.1327621   4.0215574  53.9518071  30.5178841   5.1862897  53.5692623
  30.4855525   4.4412366  53.8103857  20.0828554  -2.2164765  50.8843778
  19.2416560  -2.3160891  51.0922672  20.2918562  -1.4469285  51.2358099
  19.9893246  -2.1172722  50.9671093  23.8945218  -4.2883366  50.1341375
  23.5908356  -4.8427378  50.7351783  23.1924639  -4.1091156  49.6469410
  23.7461428  -4.3438584  50.1511081  19.9737361   0.1778997  52.3035411
  19.3825295   0.8188495  52.2738426  20.7358385   0.6016614  52.2766710
  19.9985622   0.3354836  52.2950558  36.0927783   0.0084767  53.3012689
  36.1510907   0.4571416  54.0472666  35.4594251   0.4183580  52.8642769
  36.0079078   0.1358501  53.3465237  29.7326878   5.6288309  49.7367435
  29.5346566   6.1179123  49.0423647  29.1114589   5.8329550  50.3151569
  29.6114442   5.7304847  49.7190658  23.7934856  -2.6026794  44.0777679
  24.5376901  -2.2152518  44.3160629  23.9395552  -3.4469369  44.2418167
  23.9245441  -2.6696322  44.1371649  33.0449463  -1.9698945  51.3878379
  32.8047685  -2.8092530  51.3920806  33.5241470  -1.8898779  52.1119153
  33.0801646  -2.0817546  51.4953182  31.6500680  -0.8047539  55.2712684
  32.3734879  -1.2575013  55.0923704  31.3850642  -0.5242873  54.4885011
  31.7181953  -0.8296570  55.1291399  28.2633314   2.4338797  42.1707010
  28.9867513   2.8996910  42.0271583  27.8233905   2.5012407  41.4204607
  28.3049006   2.5122634  42.0391791  27.4319469  -0.7063661  53.4207699
  26.8176462  -1.2505610  53.7156334  27.9486754  -1.2199424  52.9413515
  27.4175132  -0.8627252  53.3931927  26.6715766   0.3640609  51.1551997
  26.2443374  -0.2609672  50.7217433  26.6640711   0.0815531  51.9811005
  26.6074908   0.2293390  51.2131825  25.9129383   2.5796244  54.4001127
  25.4054475   3.1332091  54.8441758  25.6156030   2.6404534  53.5819902
  25.7934268   2.6702555  54.3449584  28.5237164   6.4959502  42.3305071
  27.8066473   6.3220364  41.8652308  29.1743901   6.2612074  41.7980557
  28.5139014   6.4355294  42.1834289  25.1571869   7.5120802  51.3058134
  24.9337523   6.7539632  51.6742160  24.6681712   7.5418824  50.5838574
  25.0515318   7.4043027  51.2534875  23.8050326   7.7321261  48.7595219
  23.3910724   7.0695391  48.3699060  24.4897700   7.8799119  48.2390913
  23.8448697   7.6561919  48.6251716  27.1715620   6.8911346  49.5118835
  26.7731903   7.0013616  48.7439656  26.5566839   7.0993412  50.0945395
  27.0214509   6.9384914  49.4850135  34.9057462   1.4663313  42.8961926
  35.2891068   2.2154669  43.1260023  34.1101576   1.7129132  42.6373915
  34.8451245   1.6133006  42.8919500  29.0698897  -2.8737563  49.7134090
  29.5652562  -3.5914568  49.6738111  28.2598672  -3.1766765  49.5988577
  29.0242790  -3.0239916  49.6907816  24.5157508   0.9760251  41.8631095
  23.7068831   0.6526924  41.8164404  25.0232417   0.2693473  41.7959344
  24.4707175   0.8241567  41.8461389  31.1350716  -0.1233875  52.4011219
  31.5605787  -0.6459453  51.8481644  30.7707635   0.4746962  51.8799842
  31.1437318  -0.1123648  52.2420229  20.7704795   8.1730342  51.1608565
  21.0851354   8.9866731  51.1686346  21.1798209   7.7880561  51.8290724
  20.8772893   8.2359045  51.2612656  27.7229315   3.5900389  48.7312377
  28.1940493   4.3040652  48.9002362  28.0589493   2.9899139  49.2672246
  27.8424430   3.6071853  48.8344753  28.3603261   3.3818323  55.4940069
  27.8124207   2.7576207  55.2260135  28.8216290   3.5712595  54.7784149
  28.3470471   3.3177373  55.3490500  18.1117815   2.1203451  50.8087173
  18.7162673   2.0799285  50.1800994  17.9045128   2.9674603  50.8391229
  18.1706713   2.2391453  50.7203290  27.9261588   4.3869396  52.0249411
  28.7459961   4.2432362  52.2865706  27.6455665   5.0115595  52.5665848
  28.0058331   4.4579748  52.1437350  44.3975238  12.0434248  44.9892287
  44.3669242  12.8978884  45.1610556  44.9956587  11.7429540  45.5478431
  44.4812396  12.1250744  45.0967089  37.5974923  11.1309899  49.7445217
  36.7412818  11.2918397  49.7954334  37.6442577  10.2601963  49.7650278
  37.4774034  11.0260700  49.7551283  40.9068639  17.3996424  59.3505673
  41.6135407  16.9048455  59.4792608  41.0956575  17.8405506  58.6208331
  41.0396545  17.3914775  59.2614719  40.4426744  13.1901943  52.3876869
  40.9882704  13.8687029  52.4470839  40.3843620  13.0489403  51.5278450
  40.5142658  13.2693944  52.2688930  42.2191812  14.6186550  43.2610597
  42.1031338  15.3694236  43.6902735  43.0147699  14.3610503  43.5106684
  42.3196402  14.6921397  43.3614688  29.0555950   8.8697026  50.2981863
  28.4360982   8.2789673  50.1291878  28.9539814   9.4608461  49.6646186
  28.9493626   8.8701108  50.1786852  36.1523846  10.6096568  44.6314326
  36.8504011  10.7884695  45.1235789  36.4676179  10.0866907  44.0084715
  36.3019183  10.5590340  44.6116336  28.7825083  12.4149307  52.5425432
  28.6583780  13.0011753  53.1775251  29.4343368  11.9209503  52.8437707
  28.8598733  12.4288112  52.6811361  34.3250710   5.9788964  48.7135600
  33.9954040   6.4300108  48.0439299  33.6495711   5.9005128  49.2608607
  34.1761146   6.0340099  48.6958824  41.5327117   1.9674487  46.9585211
  41.2180558   2.6577966  47.3905633  41.0154059   1.9119269  46.2570712
  41.4091588   2.0609376  46.9182160  40.8739551  11.9678988  43.0722622
  40.3451023  12.1838622  43.7319928  41.3964571  12.6615127  42.9923591
  40.8728004  12.1022125  43.1578221  46.3287604  17.5425292  48.4455666
  45.4985307  17.7535936  48.6089083  46.2796856  16.7162347  48.1697950
  46.1994340  17.4514899  48.4293032  38.0460934  20.8223961  57.2419749
  38.1344280  20.6350101  58.0897959  38.4750646  20.1761390  56.8424595
  38.1223036  20.6986968  57.3091500  35.6131393  20.1055121  56.2237411
  35.0502228  19.6927731  56.7477072  36.3752417  20.0308026  56.6430554
  35.6425842  20.0332521  56.3630411  37.2216373  12.1107857  40.3499010
  37.4612377  12.3185841  39.5374353  37.5432214  11.3065366  40.4587955
  37.3053531  12.0221958  40.2459563  32.5306664   4.0401253  44.1958548
  33.2852632   4.4079570  43.9575598  32.3534198   4.4140807  44.9637728
  32.6161142   4.1499441  44.2743437  45.8241562  10.1895693  52.2406088
  44.9869984  10.2597880  52.4753682  45.7929793  10.1920188  51.3680390
  45.6959845  10.2005920  52.1465635  32.2206291  12.3328729  57.9554456
  32.3926795  12.2234623  58.8039738  32.7575649  12.9783134  57.7185648
  32.3251295  12.4120730  58.0459553  30.8863728   6.4471572  40.8936661
  30.7039302   6.6643452  40.0677654  31.7489341   6.5610584  40.9495276
  30.9868318   6.4961470  40.7791148  31.1230863  18.7060369  52.6372955
  31.6629088  18.5631500  53.3076327  30.4400810  19.1057120  53.0056981
  31.1023017  18.7440040  52.7907376  36.5663448   3.4497982  43.9285685
  37.2949608   3.2713937  43.4823841  36.6558340   4.2916062  44.1392863
  36.6870110   3.5481861  43.8939203  40.5471748  14.3851370  47.8317979
  41.3029263  14.8182884  47.8706888  40.6534073  13.7356139  48.4052615
  40.6741919  14.3528854  47.9216005  38.1580993  20.2532980  59.9063532
  38.9421410  20.3663828  60.2719274  37.9577588  19.4274117  60.1022218
  38.2447018  20.1479699  59.9897918  26.5268008  14.9260660  52.7907376
  26.2606424  14.1099777  52.9498366  26.5406573  14.9713815  51.9202892
  26.4892731  14.8117565  52.6860858  43.5049402   5.2538475  50.8249810
  44.1475311   5.3236579  51.4111725  43.7572423   4.5867698  50.3229352
  43.6371534   5.1664823  50.8377089  30.4325755   9.7245744  39.4059134
  29.7183933   9.4383924  39.8181567  30.9169724  10.0642370  40.0465522
  30.3985119   9.7327394  39.5614769  31.2766615   8.4639038  55.4374384
  30.5838412   7.9936018  55.6835115  31.8926942   8.2377343  56.0116091
  31.2651145   8.3606170  55.5583536  38.3151386  22.1643082  53.5529988
  37.5166632  21.9242582  53.8103856  38.7637398  22.2157475  54.2997036
  38.2625998  22.1365473  53.7014912  46.7196266  14.9305567  47.4740019
  47.3812700  14.3696235  47.3735928  46.0787678  14.4357598  47.7992710
  46.7225133  14.7741976  47.5072359  43.0061096  15.9470949  47.2152008
  43.2416685  16.0916148  46.3878859  43.1550660  16.7113357  47.6083522
  43.0626900  16.0810004  47.1515612  30.0007174  12.4304442  56.5801229
  30.7247146  12.4157473  57.0666124  30.1023310  13.1399797  56.0823197
  30.1225383  12.5329145  56.5780016  44.8351553  14.7872615  45.0521612
  45.1659770  15.3200255  44.4461707  45.4084641  14.8411503  45.7083563
  44.9685232  14.8742184  45.0599394  37.3752123  15.9103527  61.4450176
  36.5825104  16.2247039  61.6302796  37.4901050  16.1254995  60.6070961
  37.2747534  15.9887363  61.3488511  40.0483442  12.6337518  45.7345192
  40.1430297  13.3726812  46.1884817  39.4242286  12.2054993  46.1679756
  39.9692472  12.6798838  45.8653339  38.3035916  15.8123730  56.3835473
  38.8774778  15.1750975  56.5384037  38.2250720  15.8127813  55.5145130
  38.3769151  15.7188842  56.2781884  26.9032332  12.5912940  50.2218187
  27.4805835  12.4549391  50.8610432  26.2046394  12.1348724  50.4763771
  26.8853354  12.5035206  50.3540477  38.7400685   6.3475446  48.5360763
  38.0357011   5.8584632  48.6944682  38.7885659   6.3597921  47.6649207
  38.6430736   6.2765094  48.4300103  32.6334347  11.7984758  48.9221565
  32.0583938  11.9576926  49.5585526  32.2570023  11.1620167  48.4590016
  32.4937159  11.7282571  48.9476123  36.3007635  10.2708107  53.7813943
  35.9122068   9.8462325  53.1266135  35.6362334  10.5190257  54.2890970
  36.1454563  10.2446828  53.7601811  45.9430905  10.0283112  46.5561773
  45.6867469   9.2163054  46.3659656  46.7860218  10.0360679  46.3291961
  46.0296930   9.9095109  46.4946591  22.3791166  11.4424833  46.9366006
  22.4651417  11.0656701  47.7179536  23.0066963  11.0685278  46.4585964
  22.4847717  11.3310315  46.9811483  40.1233997   3.9682736  51.2937928
  40.5044509   3.2860907  51.6805802  39.3197281   3.6792338  51.1113592
  40.0610459   3.8249785  51.3241984  43.6256064  17.1832708  56.3920326
  43.3894701  16.3520773  56.2732387  44.2699293  17.1318315  56.9775170
  43.6850735  17.0530396  56.4606220  33.9157297  13.1930519  41.4437952
  34.3002450  12.9738226  42.1954497  33.6668917  14.0193465  41.5739028
  33.9359370  13.2828665  41.5739028  34.0825837   6.4736934  61.1600536
  33.7679278   7.2436497  60.8970099  33.7615770   5.9107190  60.5752763
  33.9884756   6.5047203  61.0341886  44.6492484  16.9677157  52.4548621
  44.3438301  17.7005214  52.8161936  43.9298700  16.5615086  52.1741407
  44.4979827  17.0158890  52.4661758  50.3494277  13.6070158  51.7816965
  50.2818777  13.6266117  50.9119551  50.3349939  14.4500485  52.0072635
  50.3373033  13.7343892  51.6869442  31.6357734   4.8627456  46.7746732
  30.7680160   4.9350055  46.8404342  31.9232939   5.6649535  46.9634707
  31.5497482   4.9921603  46.8121499  40.7590623   5.0105315  55.1058054
  41.5044215   4.8215126  54.6921480  40.3427928   5.5363553  54.5471911
  40.8075597   5.0607461  54.9622627  48.1352894  12.3814544  50.0563559
  48.6860815  11.7482613  50.2960651  48.1197009  12.9129937  50.7479063
  48.2138090  12.3663492  50.1942417  34.7875285  16.2153141  54.6023453
  34.2886978  16.9268909  54.6808341  35.5975509  16.5353808  54.5641615
  34.8331391  16.3679990  54.6080021  41.8381300  10.6210877  49.1668155
  41.4946066   9.9001213  49.5175405  41.9374343  10.4124729  48.3246514
  41.8023343  10.4835081  49.0939835  33.7142343   9.0734185  59.8985751
  32.9042118   9.3791965  59.7875593  34.1917029   9.7939768  60.0138335
  33.6645822   9.2248787  59.8992822  29.5625086   8.3385715  44.2163609
  29.2749882   7.9686986  43.4795556  30.2495555   8.8080570  43.9547314
  29.6213984   8.3532684  44.0678684  32.3978758  12.2038663  45.6631013
  33.1201410  12.3679821  45.2034819  31.9186751  12.9248328  45.5570353
  32.4342489  12.3336893  45.5796627  40.3572266   8.5402462  51.0427698
  39.5183366   8.5663741  50.8065962  40.4276633   9.1873198  51.6233045
  40.2440659   8.6398588  51.0936815  30.0486375  14.6096736  54.7685153
  30.5607472  14.8880989  54.1193913  29.7622717  15.3486030  55.1347966
  30.0821238  14.7599089  54.7275031  38.8041544   5.4387839  45.7755314
  39.5067897   5.2395587  45.2975272  38.5385733   4.6663782  46.0824158
  38.8688176   5.2950805  45.7500756  44.2329789  13.7470449  48.3288940
  44.1463764  13.9025875  49.1823719  43.7780269  14.3908524  47.9548345
  44.1533046  13.8646204  48.3996047  27.1353281   9.1166928  45.0648890
  27.2369417   9.9193089  45.3929865  27.9309168   8.9154264  44.7671970
  27.2681187   9.2052826  45.0684245  33.5670100   6.7023124  54.8286195
  33.3753297   6.7178259  55.6785618  34.4168696   6.8986799  54.8052850
  33.6645822   6.7337476  54.9509490  27.9517013   9.2314106  52.8070011
  27.8102505   8.3798046  52.9314519  28.2357576   9.2742766  51.9832217
  27.9724859   9.1113856  52.7037635  38.1055605  11.0681196  46.9514500
  37.8590320  10.9876947  47.7851288  38.4340728  10.2834664  46.7577027
  38.1176849  10.9407461  47.0462023  42.0003654  17.7764555  50.7401281
  41.8618014  18.4745601  51.2450023  41.2203652  17.6213212  50.3837463
  41.8646881  17.8564722  50.7627555  40.3381739  14.0760931  56.9923662
  40.3329778  13.2040747  56.9966089  41.0442733  14.2749100  56.5193118
  40.4426743  13.9764805  56.9230698  34.0652633  13.8037915  56.3637483
  34.2096008  14.3839123  55.7280593  34.4128281  14.1814211  57.0687337
  34.1380094  13.9458619  56.3736478  36.2372550  13.0028083  54.1462614
  35.4895864  13.1959097  53.7410892  36.3914075  12.1773303  53.9086735
  36.1494978  12.9093194  54.0508020  33.1380388  21.9940686  53.2298509
  33.2869951  21.4343602  52.5771914  33.9180390  22.0732688  53.6131028
  33.2754481  21.9226252  53.1895459  43.4957027  17.1342809  41.5017780
  43.1163836  16.3479947  41.4947069  42.8323273  17.6829666  41.3589424
  43.3415502  17.0987633  41.4798577  35.6633688  22.1655329  54.5083000
  35.5877359  21.4964140  55.0633789  35.5923547  22.8673117  55.0223666
  35.6414295  22.1700237  54.6659848  36.4774327   6.8978634  55.0358018
  36.9346941   7.6302608  55.1630810  36.5530656   6.4745099  55.7945274
  36.5565297   6.9435872  55.1659094  28.7207318   7.1444453  56.1247462
  28.1849508   6.5324812  56.4408229  28.7825083   7.7192589  56.7781128
  28.6502951   7.1391381  56.2682888  34.3556705   8.8880738  51.8799842
  33.5652780   8.7072198  52.2017178  34.7517328   8.1107690  51.8630136
  34.2973581   8.7468199  51.9252390  39.7400391  16.5223168  49.6059288
  39.0645393  16.2908400  50.1072675  39.7492767  15.9144351  48.9801393
  39.6418896  16.3982093  49.5875440  36.8694535  11.3640997  56.3623341
  36.8053676  12.2250953  56.2343478  37.0091723  11.0472990  55.5618892
  36.8810005  11.4441163  56.2251554  35.5513629  14.0573136  50.5039544
  35.1275878  14.2577635  49.7678562  35.3758484  13.2101984  50.6163844
  35.4624510  13.9621918  50.4113234  41.2492326  18.1385718  61.9187792
  42.0627191  17.8670867  62.0792924  41.0887293  17.8393258  61.1147988
  41.3462275  18.0540644  61.8233198  38.5264488   8.8219376  54.8583180
  38.7406458   8.1830290  54.3046534  37.9098387   9.2665199  54.4291042
  38.4669817   8.7929519  54.7133611  27.4130336  11.7360138  46.2528283
  27.7929300  12.1544683  45.5888551  26.8385700  12.3173594  46.5597127
  27.3841661  11.8837997  46.2005024  40.6903576  10.4308441  55.7966487
  39.8780258  10.1234331  55.8779660  41.1493511   9.9507441  56.3609199
  40.6383961  10.3144933  55.8921081  37.9179217   1.9319311  49.8470523
  37.0472775   1.9058032  49.8003832  38.1719558   1.7596503  49.0296368
  37.8272777   1.9029455  49.7190660  37.7857084  11.8368512  60.5795189
  38.2556715  12.4610629  60.9663063  37.8318964  11.1685488  61.1388404
  37.8624960  11.8303193  60.7195261  34.9428357   3.9425540  51.3043993
  34.4266846   3.2505731  51.4295572  34.3822286   4.6096317  51.2506592
  34.7834871   3.9388797  51.3150059  37.0120591   4.4818500  53.1336846
  36.6252344   4.5067531  53.9150376  36.5253528   3.9160178  52.6811362
  36.8833100   4.4014251  53.1824749  41.2613570  19.1992009  57.1910632
  41.8993291  18.7052204  56.8573088  40.6187662  19.1269409  56.6062859
  41.2607797  19.1151017  57.0552987  42.9870570  11.0481155  51.7576548
  42.5598178  10.9607503  51.0024647  42.3496623  11.1558930  52.3431392
  42.8300178  11.0513815  51.7321989  36.6777732   1.3685485  55.4247106
  37.3070850   1.9045785  55.1468176  36.8463595   1.2762844  56.2760671
  36.7955527   1.4346847  55.5095634  36.4791647   6.1556680  57.6973517
  37.3065077   5.8841829  57.7532132  36.4999493   6.9517522  58.0537335
  36.6044497   6.2336434  57.7588700  41.3167827  19.8911817  53.8315989
  42.1060205  19.5400882  53.9518071  41.4911425  20.7048205  53.5692623
  41.4588108  19.9597674  53.8103857  31.0561137  13.3020543  50.8843778
  30.2149144  13.2024417  51.0922672  31.2651145  14.0716023  51.2358099
  30.9625830  13.4012586  50.9671093  28.5336704  10.9240080  48.7128529
  28.1393402  10.9983091  47.9378638  27.9776821  11.3098026  49.2636890
  28.3939516  10.9921854  48.6796188  40.1701651   3.9021374  48.3932407
  40.3751244   3.8343682  49.2389405  39.8428075   4.7080195  48.3253585
  40.1516899   4.0107314  48.5092063  34.8677802  11.2301942  50.1341375
  34.5640940  10.6757930  50.7351783  34.1657223  11.4094152  49.6469410
  34.7194012  11.1746724  50.1511081  33.9243899   8.5402462  44.6986077
  34.2003633   7.8221374  44.2863645  34.5242568   9.1387382  44.4907183
  34.0537164   8.5222832  44.6066838  32.9296153  18.4451663  54.8413473
  32.8216508  18.4553725  55.7075531  33.1391935  19.2706443  54.6518427
  32.9446264  18.5692737  54.9417565  43.4235339   4.4553138  47.8735173
  42.8109652   4.9423540  48.2588905  43.5199514   3.7796629  48.4172824
  43.3473236   4.4271447  48.0114031  37.4254420   6.2115979  42.9732672
  37.8798166   6.3826539  43.6980517  37.8994465   5.5984090  42.5730448
  37.5622740   6.1466864  43.0206434  30.9469945  15.6964305  52.3035411
  30.3557878  16.3373803  52.2738426  31.7090969  16.1201922  52.2766710
  30.9718206  15.8540143  52.2950558  31.3430568   6.8566303  52.9703428
  31.8032049   6.9305232  53.7078552  31.3886675   7.6547557  52.6203250
  31.4181123   6.9860450  53.0276185  32.9913918   7.5232998  57.5375455
  32.5999483   6.8766345  57.9731233  33.1599780   8.1144433  58.1569711
  32.9584828   7.5147266  57.6938161  47.0660367  15.5270075  53.3012689
  47.1243490  15.9756723  54.0472666  46.4326834  15.9368888  52.8642769
  46.9811662  15.6543809  53.3465237  36.6847015   4.7108772  49.1109541
  35.8383060   4.8831580  48.9850891  36.6818148   3.9058116  49.4475369
  36.5594165   4.6169801  49.1420668  37.7545316   8.4883987  49.9771599
  37.2805270   7.9625749  50.4876910  38.1263451   7.9413460  49.4086460
  37.7395204   8.3299983  49.9686746  28.1318346  10.4855493  55.3455145
  28.9943959  10.3851203  55.2592474  27.8010129   9.9050203  54.7840717
  28.2103542  10.3847120  55.2500550  44.0182046  13.5486362  51.3878379
  43.7780269  12.7092778  51.3920806  44.4974053  13.6286529  52.1119153
  44.0534230  13.4367762  51.4953182  39.6828815   9.3820541  43.0397353
  39.1551834   9.4649285  42.3503061  40.1424523  10.1238413  43.0361997
  39.6730666   9.5041204  42.9372048  46.0187233  10.3287820  49.3407638
  45.7797003  10.2883654  48.5028423  46.1821134  11.1758972  49.4673360
  46.0077537  10.4479905  49.2361120  42.6233263  14.7137769  55.2712684
  43.3467462  14.2610295  55.0923704  42.3583226  14.9942435  54.4885011
  42.6914537  14.6888737  55.1291399  31.4920132   9.3097942  52.0065563
  30.8673202   9.3216334  51.3991515  31.1565727   9.7858118  52.6556803
  31.3505623   9.3816459  52.0122131  31.6761880   7.6523061  38.0638248
  31.3274685   8.3042786  38.5269797  31.1958326   7.6380174  37.3362119
  31.5532124   7.7466114  38.0249339  28.2045807  17.3698403  53.4469327
  27.6745732  16.6790841  53.4964302  28.4770901  17.3608588  52.6182036
  28.1670529  17.2665534  53.3316743  38.4052053  14.8121647  53.4207699
  37.7909046  14.2679697  53.7156334  38.9219338  14.2985884  52.9413515
  38.3907715  14.6558056  53.3931927  37.6448350  15.8825917  51.1551997
  37.2175958  15.2575636  50.7217433  37.6373294  15.6000839  51.9811005
  37.5807491  15.7478698  51.2131825  30.7610877  10.9191090  54.2240431
  30.9204364  10.1634414  54.6292153  30.5803771  11.4682030  54.8781169
  30.7576236  10.8884904  54.3803137  38.7031180   3.0852326  54.7791221
  38.2071741   3.2816000  54.0882787  39.4600242   3.4844994  54.6080022
  38.7418005   3.1730060  54.6511357  35.9734060   6.7594672  51.3694531
  35.9976547   6.2254784  50.6807311  36.2245533   6.2511981  52.0320122
  36.0143978   6.6055576  51.3659176  23.4841649  14.0426167  50.8037675
  23.3785098  13.9973011  49.9389759  22.7341869  14.3879947  51.0851960
  23.3577252  14.0867075  50.7175005  32.2535382   5.4865490  50.7500276
  32.2933753   5.9874697  51.4634983  31.4285046   5.5775884  50.4806199
  32.1374908   5.5747306  50.8150814  34.4364995  15.0526230  58.8520570
  33.5860625  15.1897944  58.9878215  34.5993122  14.3190008  59.2968272
  34.3348858  14.9640331  58.9376169  33.6749745  12.0026000  53.0474175
  32.8441675  12.1699818  52.8409423  33.6201262  11.6261951  53.8323060
  33.5439160  11.9715731  53.1322703  31.4833528   5.4934893  58.6830585
  32.1086232   4.9497026  58.9560018  31.0284008   5.0129810  58.1138376
  31.5081789   5.3424374  58.6392179  32.0485789  10.2781591  43.5764292
  32.1888750  10.7754056  44.2792934  32.5468322   9.5767886  43.7178506
  32.1426870  10.2483570  43.7015871  32.0786011  11.1448702  40.9056869
  32.7131091  11.7409127  40.8406331  32.1611622  10.8452160  41.7202739
  32.1842562  11.1889611  41.0159956  45.0568577  13.6764180  53.7743233
  45.6486417  14.3161430  53.8061431  45.4927572  12.9787216  54.0635300
  45.2087008  13.6682530  53.8224066  33.6564994   7.0762678  40.8802311
  33.9780835   6.5965760  40.2261573  33.9191938   7.8862324  40.6893123
  33.7431020   7.1252576  40.7557803  36.8861967  18.0981552  54.4001127
  36.3787058  18.6517399  54.8441758  36.5888613  18.1589842  53.5819902
  36.7666852  18.1887863  54.3449584  39.0524149   6.4634872  53.2425790
  39.4779221   6.0107398  52.6309317  38.4381142   5.9094942  53.5190578
  39.0252795   6.3148848  53.1930815  37.4918372   2.9349972  46.6516367
  36.8486690   2.7847618  47.2201506  37.1517779   2.6892317  45.8865472
  37.3463449   2.8762094  46.6219382  42.0817719  10.8909398  46.0746376
  41.4108908  11.4339101  45.9459441  42.7757469  11.3604254  45.8328071
  42.0846586  11.0407670  46.0201904  42.2445846   7.3465282  48.9836749
  42.5973456   6.9195005  49.6582548  41.3860648   7.2616126  49.1137825
  42.1695291   7.2710023  49.1031759  30.9429531   9.9772802  47.0419596
  30.2241520  10.3936934  47.3092459  31.3141893  10.5427040  46.4911234
  30.8921463  10.1222083  47.0002403  40.2429112  10.6100651  52.9321591
  40.2227039  10.4283946  53.7856370  40.2908313  11.4812669  52.9081175
  40.2463753  10.7117189  53.0544886  38.1875442  17.1987843  58.8570068
  38.1471297  16.5537520  58.2715224  38.9998760  17.1424460  59.1695480
  38.3018595  17.0946809  58.8167017  36.7176105   9.0170802  42.3792975
  36.1240945   9.3387798  41.8277542  36.7551383   8.1711897  42.1714081
  36.6350495   8.9395130  42.2675746  43.6769906   2.4683694  49.9121062
  43.1700771   1.7612833  49.8442239  44.4737340   2.1376883  50.0422138
  43.7197145   2.3156845  49.9220057  39.5933922   8.9750306  45.8094725
  39.3647615   8.9983008  44.9673083  39.8531998   8.1507773  45.9289736
  39.5980110   8.8566386  45.7019923  33.8753150  10.8284779  55.4119825
  33.3632053  10.2205962  55.7704857  33.7032647  11.5441372  55.8793801
  33.7742787  10.8448078  55.5336049  28.7218865   9.2722354  58.0622187
  28.5521455   9.9323729  57.5170394  28.2784815   9.4828916  58.7834676
  28.6318199   9.4008337  58.0883817  32.6478684   7.5126852  47.1048921
  33.1236051   7.8743932  46.4699102  32.1467284   8.1683320  47.3849064
  32.6444043   7.6621041  47.0525662  45.8790046  16.9848620  42.8961926
  46.2623652  17.7339977  43.1260023  45.0834159  17.2314440  42.6373915
  45.8183828  17.1318314  42.8919500  37.7522221   8.7509024  57.8522081
  38.3093651   8.5222833  57.2200546  37.4283286   9.5114689  57.5757293
  37.7868631   8.8292860  57.7178578  25.6220930  12.1769220  53.3210677
  25.0747649  11.5069866  53.4391545  26.4113308  11.8099068  53.3854144
  25.6573113  12.0234206  53.3479378  35.4705338  11.8376677  58.8174088
  36.2216665  12.1528354  59.1313642  35.6627915  11.6355848  57.9908010
  35.6096752  11.8544059  58.7417484  34.6905338   9.6568052  40.4722305
  35.0704302   9.6747681  39.6873420  33.9497934  10.1022041  40.3513152
  34.6374175   9.7249827  40.3385873  42.3190628   7.9650243  46.0597884
  42.3184855   7.8098900  46.9182160  42.1146808   8.8113230  46.0039269
  42.2890406   8.0670864  46.1785823  24.3807899  11.3890028  50.4756700
  24.2029660  10.9366637  51.2011616  24.0926921  12.1916189  50.6595178
  24.3120852  11.4412586  50.6100203  40.0431480  12.6447745  49.7134090
  40.5385146  11.9270740  49.6738111  39.2331256  12.3418543  49.5988577
  39.9975374  12.4945391  49.6907816  42.1083299  15.3951433  52.4011219
  42.5338371  14.8725855  51.8481644  41.7440219  15.9932270  51.8799842
  42.1169902  15.4061660  52.2420229  40.7838883  20.7187010  60.9104449
  40.8935849  19.9295571  61.2661196  41.1129780  20.6292947  60.1078787
  40.8491289  20.5892863  60.8446839  35.6131393   3.8813168  55.6870471
  35.7459299   3.0844161  56.0151447  35.9976546   4.4079571  56.2668747
  35.6887722   3.8413084  55.8213974  39.3335845  18.9003631  55.4940069
  38.7856791  18.2761515  55.2260135  39.7948874  19.0897903  54.7784149
  39.3203054  18.8362681  55.3490500  38.6863749   0.8043494  52.2851565
  37.8809712   0.6941223  52.6019403  38.5570484   0.9055949  51.4281431
  38.5483882   0.8027164  52.2059605  42.1429709   6.9688986  52.8791262
  41.5592698   7.4698192  52.4668829  42.4634003   6.4618542  52.2455585
  42.1042885   6.9680821  52.7249769  34.6824508   5.8829580  43.1549936
  35.5040203   6.0527893  42.9131631  34.2194159   6.0376841  42.4316234
  34.7355671   5.9311313  43.0121581  33.2719840   3.8772343  53.9348365
  33.8164253   3.5363469  54.5252707  33.3256776   4.7357804  54.0769650
  33.3608960   3.9527602  54.0430239  38.8994171  19.9054704  52.0249411
  39.7192545  19.7617670  52.2865706  38.6188249  20.5300903  52.5665848
  38.9790915  19.9765056  52.1437350  24.3201681  16.6223376  50.6786096
  24.2225959  15.8119648  50.9876153  25.1030551  16.6015170  50.2932364
  24.4217818  16.4990466  50.6672959  55.3707822  27.5619555  44.9892287
  55.3401826  28.4164192  45.1610556  55.9689170  27.2614848  45.5478431
  55.4544979  27.6436052  45.0967089  48.5707506  26.6495206  49.7445217
  47.7145402  26.8103705  49.7954334  48.6175160  25.7787270  49.7650278
  48.4506618  26.5446008  49.7551283  51.8801223  32.9181732  59.3505673
  52.5867990  32.4233763  59.4792608  52.0689158  33.3590814  58.6208331
  52.0129129  32.9100082  59.2614719  51.4159327  28.7087250  52.3876869
  51.9615287  29.3872337  52.4470839  51.3576204  28.5674711  51.5278450
  51.4875242  28.7879252  52.2688930  52.5059701  17.4859795  46.9585211
  52.1913142  18.1763274  47.3905633  51.9886643  17.4304577  46.2570712
  52.3824171  17.5794684  46.9182160  57.3020188  33.0610600  48.4455666
  56.4717891  33.2721244  48.6089083  57.2529440  32.2347655  48.1697950
  57.1726923  32.9700207  48.4293032  49.0193517  36.3409269  57.2419749
  49.1076863  36.1535409  58.0897959  49.4483230  35.6946698  56.8424595
  49.0955620  36.2172276  57.3091500  43.5039247  19.5586561  44.1958548
  44.2585215  19.9264878  43.9575598  43.3266782  19.9326115  44.9637728
  43.5893726  19.6684748  44.2743437  56.7974146  25.7081001  52.2406088
  55.9602567  25.7783188  52.4753682  56.7662377  25.7105496  51.3680390
  56.6692428  25.7191228  52.1465635  43.1938875  27.8514037  57.9554456
  43.3659379  27.7419931  58.8039738  43.7308233  28.4968442  57.7185648
  43.2983879  27.9306038  58.0459553  47.5396031  18.9683290  43.9285685
  48.2682192  18.7899245  43.4823841  47.6290924  19.8101370  44.1392863
  47.6602693  19.0667169  43.8939203  49.1313577  35.7718288  59.9063532
  49.9153993  35.8849135  60.2719274  48.9310171  34.9459425  60.1022218
  49.2179602  35.6665007  59.9897918  54.4781986  20.7723783  50.8249810
  55.1207894  20.8421887  51.4111725  54.7305007  20.1053006  50.3229352
  54.6104118  20.6850131  50.8377089  42.2499198  23.9824346  55.4374384
  41.5570995  23.5121326  55.6835115  42.8659526  23.7562651  56.0116091
  42.2383728  23.8791478  55.5583536  57.6928849  30.4490875  47.4740019
  58.3545283  29.8881543  47.3735928  57.0520261  29.9542905  47.7992710
  57.6957717  30.2927284  47.5072359  40.9739757  27.9489750  56.5801229
  41.6979730  27.9342781  57.0666124  41.0755894  28.6585105  56.0823197
  41.0957966  28.0514453  56.5780016  55.8084137  30.3057923  45.0521612
  56.1392354  30.8385563  44.4461707  56.3817225  30.3596811  45.7083563
  55.9417816  30.3927492  45.0599394  48.3484707  31.4288835  61.4450176
  47.5557688  31.7432346  61.6302796  48.4633634  31.6440303  60.6070961
  48.2480117  31.5072671  61.3488511  51.0216026  28.1522826  45.7345192
  51.1162880  28.8912120  46.1884817  50.3974869  27.7240301  46.1679756
  50.9425056  28.1984146  45.8653339  49.2768500  31.3309038  56.3835473
  49.8507361  30.6936283  56.5384037  49.1983303  31.3313121  55.5145130
  49.3501734  31.2374150  56.2781884  49.7133268  21.8660754  48.5360763
  49.0089595  21.3769940  48.6944682  49.7618243  21.8783229  47.6649207
  49.6163320  21.7950402  48.4300103  47.2740219  25.7893415  53.7813943
  46.8854652  25.3647633  53.1266135  46.6094917  26.0375565  54.2890970
  47.1187147  25.7632136  53.7601811  56.9163488  25.5468420  46.5561773
  56.6600053  24.7348361  46.3659656  57.7592802  25.5545987  46.3291961
  57.0029514  25.4280417  46.4946591  51.0966581  19.4868044  51.2937928
  51.4777092  18.8046215  51.6805802  50.2929865  19.1977646  51.1113592
  51.0343042  19.3435093  51.3241984  54.5988647  32.7018016  56.3920326
  54.3627285  31.8706081  56.2732387  55.2431876  32.6503623  56.9775170
  54.6583318  32.5715704  56.4606220  45.0558421  21.9922242  61.1600536
  44.7411862  22.7621805  60.8970099  44.7348353  21.4292498  60.5752763
  44.9617340  22.0232511  61.0341886  55.6225068  32.4862465  52.4548621
  55.3170885  33.2190522  52.8161936  54.9031284  32.0800394  52.1741407
  55.4712410  32.5344198  52.4661758  61.3226860  29.1255465  51.7816965
  61.2551360  29.1451425  50.9119551  61.3082523  29.9685793  52.0072635
  61.3105617  29.2529200  51.6869442  51.7323207  20.5290623  55.1058054
  52.4776799  20.3400434  54.6921480  51.3160511  21.0548861  54.5471911
  51.7808181  20.5792769  54.9622627  59.1085477  27.8999852  50.0563559
  59.6593399  27.2667921  50.2960651  59.0929593  28.4315244  50.7479063
  59.1870674  27.8848800  50.1942417  45.7607868  31.7338449  54.6023453
  45.2619562  32.4454217  54.6808341  46.5708093  32.0539115  54.5641615
  45.8063975  31.8865298  54.6080021  52.8113884  26.1396185  49.1668155
  52.4678650  25.4186521  49.5175405  52.9106926  25.9310036  48.3246514
  52.7755927  26.0020389  49.0939835  44.6874926  24.5919493  59.8985751
  43.8774702  24.8977273  59.7875593  45.1649613  25.3125076  60.0138335
  44.6378405  24.7434094  59.8992822  51.3304849  24.0587770  51.0427698
  50.4915950  24.0849049  50.8065962  51.4009216  24.7058506  51.6233045
  51.2173243  24.1583896  51.0936815  41.0218958  30.1282044  54.7685153
  41.5340055  30.4066297  54.1193913  40.7355301  30.8671338  55.1347966
  41.0553821  30.2784397  54.7275031  49.7774127  20.9573147  45.7755314
  50.4800480  20.7580895  45.2975272  49.5118316  20.1849089  46.0824158
  49.8420760  20.8136113  45.7500756  55.2062373  29.2655757  48.3288940
  55.1196347  29.4211183  49.1823719  54.7512853  29.9093832  47.9548345
  55.1265630  29.3831512  48.3996047  44.5402684  22.2208432  54.8286195
  44.3485881  22.2363567  55.6785618  45.3901280  22.4172107  54.8052850
  44.6378406  22.2522783  54.9509490  49.0788189  26.5866504  46.9514500
  48.8322903  26.5062255  47.7851288  49.4073312  25.8019972  46.7577027
  49.0909433  26.4592769  47.0462023  51.3114323  29.5946239  56.9923662
  51.3062361  28.7226055  56.9966089  52.0175317  29.7934408  56.5193118
  51.4159327  29.4950113  56.9230698  45.0385216  29.3223223  56.3637483
  45.1828592  29.9024431  55.7280593  45.3860865  29.6999519  57.0687337
  45.1112678  29.4643927  56.3736478  47.2105134  28.5213391  54.1462614
  46.4628448  28.7144405  53.7410892  47.3646659  27.6958610  53.9086735
  47.1227561  28.4278502  54.0508020  47.4506911  22.4163942  55.0358018
  47.9079525  23.1487916  55.1630810  47.5263239  21.9930407  55.7945274
  47.5297881  22.4621180  55.1659094  39.6939902  22.6629761  56.1247462
  39.1582091  22.0510119  56.4408229  39.7557667  23.2377897  56.7781128
  39.6235535  22.6576689  56.2682888  51.9234237  15.5953817  48.9051861
  52.0417805  16.0530280  48.1719164  51.7496412  14.7899078  48.6188078
  51.9153408  15.5447589  48.7552795  45.3289289  24.4066046  51.8799842
  44.5385363  24.2257506  52.2017178  45.7249911  23.6292998  51.8630136
  45.2706165  24.2653506  51.9252390  47.8427119  26.8826305  56.3623341
  47.7786260  27.7436261  56.2343478  47.9824307  26.5658298  55.5618892
  47.8542589  26.9626471  56.2251554  52.2224910  33.6571026  61.9187792
  53.0359775  33.3856175  62.0792924  52.0619876  33.3578566  61.1147988
  52.3194858  33.5725952  61.8233198  49.4997072  24.3404684  54.8583180
  49.7139041  23.7015598  54.3046534  48.8830971  24.7850507  54.4291042
  49.4402401  24.3114827  54.7133611  51.6636160  25.9493749  55.7966487
  50.8512841  25.6419639  55.8779660  52.1226094  25.4692749  56.3609199
  51.6116544  25.8330241  55.8921081  48.8911800  17.4504619  49.8470523
  48.0205358  17.4243340  49.8003832  49.1452142  17.2781811  49.0296368
  48.8005360  17.4214763  49.7190660  48.7589667  27.3553820  60.5795189
  49.2289298  27.9795937  60.9663063  48.8051547  26.6870796  61.1388404
  48.8357543  27.3488500  60.7195261  45.9160941  19.4610848  51.3043993
  45.3999429  18.7691039  51.4295572  45.3554870  20.1281625  51.2506592
  45.7567454  19.4574105  51.3150059  47.9853174  20.0003808  53.1336846
  47.5984927  20.0252839  53.9150376  47.4986112  19.4345486  52.6811362
  47.8565683  19.9199559  53.1824749  52.2346154  34.7177317  57.1910632
  52.8725874  34.2237512  56.8573088  51.5920245  34.6454717  56.6062859
  52.2340380  34.6336325  57.0552987  53.9603154  26.5666463  51.7576548
  53.5330762  26.4792811  51.0024647  53.3229207  26.6744238  52.3431392
  53.8032761  26.5699122  51.7321989  47.6510316  16.8870793  55.4247106
  48.2803434  17.4231093  55.1468176  47.8196179  16.7948152  56.2760671
  47.7688111  16.9532155  55.5095634  47.4524231  21.6741988  57.6973517
  48.2797660  21.4027137  57.7532132  47.4732077  22.4702830  58.0537335
  47.5777081  21.7521742  57.7588700  52.2900410  35.4097125  53.8315989
  53.0792789  35.0586190  53.9518071  52.4644008  36.2233513  53.5692623
  52.4320692  35.4782982  53.8103857  51.1434235  19.4206682  48.3932407
  51.3483828  19.3528989  49.2389405  50.8160658  20.2265503  48.3253585
  51.1249482  19.5292622  48.5092063  45.8410386  26.7487250  50.1341375
  45.5373523  26.1943238  50.7351783  45.1389806  26.9279460  49.6469410
  45.6926595  26.6932032  50.1511081  54.3967922  19.9738446  47.8735173
  53.7842236  20.4608848  48.2588905  54.4932097  19.2981937  48.4172824
  54.3205820  19.9456755  48.0114031  48.3987003  21.7301287  42.9732672
  48.8530750  21.9011847  43.6980517  48.8727049  21.1169398  42.5730448
  48.5355323  21.6652172  43.0206434  42.3163151  22.3751611  52.9703428
  42.7764633  22.4490540  53.7078552  42.3619258  23.1732865  52.6203250
  42.3913707  22.5045758  53.0276185  43.9646501  23.0418306  57.5375455
  43.5732066  22.3951653  57.9731233  44.1332364  23.6329741  58.1569711
  43.9317412  23.0332573  57.6938161  58.0392950  31.0455383  53.3012689
  58.0976074  31.4942031  54.0472666  57.4059418  31.4554195  52.8642769
  57.9544245  31.1729117  53.3465237  47.6579599  20.2294080  49.1109541
  46.8115644  20.4016888  48.9850891  47.6550731  19.4243424  49.4475369
  47.5326749  20.1355109  49.1420668  48.7277899  24.0069295  49.9771599
  48.2537853  23.4811057  50.4876910  49.0996035  23.4598768  49.4086460
  48.7127788  23.8485291  49.9686746  39.1050929  26.0040801  55.3455145
  39.9676542  25.9036511  55.2592474  38.7742712  25.4235511  54.7840717
  39.1836126  25.9032428  55.2500550  54.9914630  29.0671670  51.3878379
  54.7512853  28.2278086  51.3920806  55.4706637  29.1471837  52.1119153
  55.0266813  28.9553070  51.4953182  50.6561399  24.9005849  43.0397353
  50.1284417  24.9834593  42.3503061  51.1157107  25.6423721  43.0361997
  50.6463249  25.0226512  42.9372048  56.9919817  25.8473128  49.3407638
  56.7529587  25.8068962  48.5028423  57.1553718  26.6944280  49.4673360
  56.9810120  25.9665213  49.2361120  53.5965847  30.2323077  55.2712684
  54.3200046  29.7795603  55.0923704  53.3315809  30.5127743  54.4885011
  53.6647120  30.2074045  55.1291399  42.4652715  24.8283250  52.0065563
  41.8405785  24.8401642  51.3991515  42.1298310  25.3043426  52.6556803
  42.3238207  24.9001767  52.0122131  49.3784636  30.3306955  53.4207699
  48.7641629  29.7865005  53.7156334  49.8951921  29.8171192  52.9413515
  49.3640299  30.1743364  53.3931927  41.7343461  26.4376398  54.2240431
  41.8936947  25.6819722  54.6292153  41.5536354  26.9867338  54.8781169
  41.7308820  26.4070212  54.3803137  49.6763764  18.6037634  54.7791221
  49.1804325  18.8001308  54.0882787  50.4332826  19.0030302  54.6080022
  49.7150588  18.6915368  54.6511357  46.9466643  22.2779980  51.3694531
  46.9709130  21.7440092  50.6807311  47.1978117  21.7697288  52.0320122
  46.9876562  22.1240884  51.3659176  45.4097578  30.5711538  58.8520570
  44.5593209  30.7083252  58.9878215  45.5725706  29.8375316  59.2968272
  45.3081442  30.4825639  58.9376169  44.6482329  27.5211308  53.0474175
  43.8174258  27.6885126  52.8409423  44.5933846  27.1447259  53.8323060
  44.5171744  27.4901039  53.1322703  42.4566112  21.0120201  58.6830585
  43.0818815  20.4682333  58.9560018  42.0016592  20.5315118  58.1138376
  42.4814373  20.8609682  58.6392179  56.0301161  29.1949488  53.7743233
  56.6219001  29.8346738  53.8061431  56.4660155  28.4972524  54.0635300
  56.1819592  29.1867838  53.8224066  50.0256733  21.9820180  53.2425790
  50.4511804  21.5292706  52.6309317  49.4113726  21.4280250  53.5190578
  49.9985378  21.8334156  53.1930815  48.4650956  18.4535279  46.6516367
  47.8219274  18.3032926  47.2201506  48.1250363  18.2077625  45.8865472
  48.3196033  18.3947402  46.6219382  53.0550302  26.4094706  46.0746376
  52.3841492  26.9524409  45.9459441  53.7490052  26.8789562  45.8328071
  53.0579170  26.5592978  46.0201904  53.2178430  22.8650590  48.9836749
  53.5706040  22.4380313  49.6582548  52.3593231  22.7801433  49.1137825
  53.1427874  22.7895331  49.1031759  51.2161695  26.1285959  52.9321591
  51.1959623  25.9469254  53.7856370  51.2640896  26.9997977  52.9081175
  51.2196336  26.2302497  53.0544886  49.1608025  32.7173151  58.8570068
  49.1203880  32.0722827  58.2715224  49.9731344  32.6609768  59.1695480
  49.2751179  32.6132117  58.8167017  54.6502490  17.9869002  49.9121062
  54.1433354  17.2798141  49.8442239  55.4469923  17.6562191  50.0422138
  54.6929729  17.8342153  49.9220057  50.5666506  24.4935614  45.8094725
  50.3380199  24.5168315  44.9673083  50.8264582  23.6693081  45.9289736
  50.5712694  24.3751694  45.7019923  44.8485734  26.3470087  55.4119825
  44.3364637  25.7391270  55.7704857  44.6765230  27.0626680  55.8793801
  44.7475371  26.3633386  55.5336049  39.6951449  24.7907662  58.0622187
  39.5254039  25.4509037  57.5170394  39.2517399  25.0014224  58.7834676
  39.6050782  24.9193644  58.0883817  56.8522630  32.5033928  42.8961926
  57.2356235  33.2525285  43.1260023  56.0566743  32.7499748  42.6373915
  56.7916412  32.6503622  42.8919500  48.7254804  24.2694332  57.8522081
  49.2826234  24.0408141  57.2200546  48.4015869  25.0299997  57.5757293
  48.7601215  24.3478168  57.7178578  46.4437922  27.3561985  58.8174088
  47.1949249  27.6713662  59.1313642  46.6360498  27.1541156  57.9908010
  46.5829336  27.3729367  58.7417484  53.2923212  23.4835551  46.0597884
  53.2917438  23.3284208  46.9182160  53.0879392  24.3298538  46.0039269
  53.2622990  23.5856172  46.1785823  51.0164064  28.1633053  49.7134090
  51.5117729  27.4456048  49.6738111  50.2063840  27.8603851  49.5988577
  50.9707957  28.0130699  49.6907816  53.0815883  30.9136741  52.4011219
  53.5070954  30.3911162  51.8481644  52.7172803  31.5117578  51.8799842
  53.0902485  30.9246968  52.2420229  51.7571467  36.2372318  60.9104449
  51.8668432  35.4480879  61.2661196  52.0862363  36.1478254  60.1078787
  51.8223872  36.1078171  60.8446839  46.5863977  19.3998475  55.6870471
  46.7191883  18.6029469  56.0151447  46.9709130  19.9264878  56.2668747
  46.6620306  19.3598392  55.8213974  50.3068428  34.4188939  55.4940069
  49.7589374  33.7946823  55.2260135  50.7681457  34.6083211  54.7784149
  50.2935638  34.3547989  55.3490500  49.6596332  16.3228802  52.2851565
  48.8542296  16.2126531  52.6019403  49.5303068  16.4241257  51.4281431
  49.5216465  16.3212472  52.2059605  53.1162293  22.4874293  52.8791262
  52.5325282  22.9883500  52.4668829  53.4366587  21.9803850  52.2455585
  53.0775468  22.4866129  52.7249769  44.2452424  19.3957651  53.9348365
  44.7896837  19.0548777  54.5252707  44.2989360  20.2543112  54.0769650
  44.3341543  19.4712910  54.0430239  66.3440405  43.0804863  44.9892287
  66.3134409  43.9349500  45.1610556  66.9421754  42.7800156  45.5478431
  66.4277563  43.1621360  45.0967089  59.5440090  42.1680514  49.7445217
  58.6877985  42.3289013  49.7954334  59.5907744  41.2972578  49.7650278
  59.4239201  42.0631316  49.7551283  53.9281230  51.7043232  45.5082449
  53.1764129  51.3258771  45.2798494  54.3767241  51.7361666  44.7601259
  53.8830896  51.6528839  45.3639951  62.8533806  48.4367040  59.3505673
  63.5600574  47.9419071  59.4792608  63.0421742  48.8776122  58.6208331
  62.9861712  48.4285390  59.2614719  59.3806190  52.1268602  40.9367996
  59.0457558  52.8045523  40.5012218  59.8933060  51.7373913  40.3484868
  59.4071771  52.1693180  40.7854787  58.9210481  54.0782870  46.8779108
  59.3049860  54.6469769  46.3383883  58.8569622  53.3532381  46.3984924
  58.9683908  54.0558334  46.7272970  62.3891911  44.2272558  52.3876869
  62.9347871  44.9057645  52.4470839  62.3308787  44.0860019  51.5278450
  62.4607825  44.3064560  52.2688930  55.5065986  51.7161624  47.7745221
  55.6076349  50.9061978  48.0842349  54.9107731  51.6218571  47.1444900
  55.4338524  51.5826653  47.7271460  64.1656980  45.6557165  43.2610597
  64.0496506  46.4064852  43.6902735  64.9612866  45.3981119  43.5106684
  64.2661569  45.7292012  43.3614688  55.3466725  56.6339214  49.1760077
  55.9904181  57.0752378  49.5656236  55.6722981  55.8292640  49.0890336
  55.4898554  56.5804408  49.2205555  56.0487305  49.6451188  44.5479939
  56.3703146  50.1856396  43.9441247  56.6959402  49.0747960  44.6802229
  56.1913360  49.6410364  44.4786974  58.0989013  41.6467183  44.6314326
  58.7969178  41.8255311  45.1235789  58.4141346  41.1237523  44.0084715
  58.2484350  41.5960956  44.6116336  50.7290251  43.4519923  52.5425432
  50.6048947  44.0382369  53.1775251  51.3808535  42.9580119  52.8437707
  50.8063900  43.4658728  52.6811361  58.2876949  48.0337628  44.6194117
  58.7270584  47.4254729  45.0648890  58.1381611  47.6545002  43.8479582
  58.3298414  47.8876100  44.5713285  55.7548592  46.6281640  51.8212943
  56.3997594  46.1354083  51.5023891  55.9950369  46.7706427  52.6479021
  55.8859177  46.5759082  51.8962476  58.2934683  49.4736546  51.4719835
  58.5757926  48.6787952  51.2506591  59.0220843  49.9517134  51.4924896
  58.4424247  49.4271143  51.4422851  56.2715877  37.0159580  48.7135600
  55.9419207  37.4670724  48.0439299  55.5960879  36.9375743  49.2608607
  56.1226313  37.0710715  48.6958824  61.8886285  46.3864810  41.5724887
  61.8037580  47.2425776  41.7174455  62.3770668  46.1109134  42.2407046
  61.9475182  46.4722131  41.6926968  63.4792285  33.0045103  46.9585211
  63.1645726  33.6948582  47.3905633  62.9619226  32.9489885  46.2570712
  63.3556755  33.0979992  46.9182160  62.8204718  43.0049604  43.0722622
  62.2916190  43.2209237  43.7319928  63.3429738  43.6985742  42.9923591
  62.8193171  43.1392741  43.1578221  68.2752771  48.5795908  48.4455666
  67.4450474  48.7906552  48.6089083  68.2262024  47.7532963  48.1697950
  68.1459507  48.4885515  48.4293032  56.3362509  51.4099763  51.2803576
  55.8189451  51.0507178  50.6764884  57.0336900  50.8861937  51.2909642
  56.3628090  51.2797450  51.1933834  59.9926101  51.8594577  57.2419749
  60.0809447  51.6720717  58.0897959  60.4215813  51.2132006  56.8424595
  60.0688203  51.7357584  57.3091500  57.5596561  51.1425737  56.2237411
  56.9967395  50.7298346  56.7477072  58.3217584  51.0678642  56.6430554
  57.5891009  51.0703137  56.3630411  59.1681541  43.1478473  40.3499010
  59.4077544  43.3556456  39.5374353  59.4897382  42.3435981  40.4587955
  59.2518698  43.0592574  40.2459563  53.1192552  53.1323758  48.8274041
  53.8213131  52.6175747  48.8846798  53.0390035  53.4597909  49.6320916
  53.2116313  53.1037984  48.9546833  67.7706730  41.2266309  52.2406088
  66.9335151  41.2968496  52.4753682  67.7394961  41.2290804  51.3680390
  67.6425012  41.2376536  52.1465635  54.1671459  43.3699345  57.9554456
  54.3391962  43.2605239  58.8039738  54.7040816  44.0153750  57.7185648
  54.2716463  43.4491346  58.0459553  52.4443327  49.3230110  48.3359649
  53.2832227  49.5553042  48.3833411  52.4755097  48.4534421  48.2666684
  52.5725045  49.2287056  48.3324294  53.0696030  49.7430985  52.6372955
  53.6094255  49.6002116  53.3076327  52.3865977  50.1427736  53.0056981
  53.0488184  49.7810656  52.7907376  58.5128615  34.4868598  43.9285685
  59.2414775  34.3084553  43.4823841  58.6023508  35.3286678  44.1392863
  58.6335277  34.5852477  43.8939203  62.4936915  45.4221986  47.8317979
  63.2494430  45.8553500  47.8706888  62.5999240  44.7726755  48.4052615
  62.6207086  45.3899469  47.9216005  65.5317086  49.2495263  48.5820382
  65.0952318  49.2532005  49.3379353  65.1980002  49.9300762  48.1499959
  65.4179706  49.3507719  48.6301215  60.1046160  51.2903596  59.9063532
  60.8886577  51.4034443  60.2719274  59.9042755  50.4644733  60.1022218
  60.1912186  51.1850315  59.9897918  48.4733176  45.9631276  52.7907376
  48.2071591  45.1470392  52.9498366  48.4871740  46.0084431  51.9202892
  48.4357898  45.8488180  52.6860858  65.4514569  36.2909091  50.8249810
  66.0940478  36.3607195  51.4111725  65.7037590  35.6238313  50.3229352
  65.5836702  36.2035439  50.8377089  53.2231782  39.5009654  55.4374384
  52.5303579  39.0306634  55.6835115  53.8392109  39.2747958  56.0116091
  53.2116312  39.3976786  55.5583536  60.2616553  53.2013698  53.5529988
  59.4631799  52.9613198  53.8103856  60.7102565  53.2528091  54.2997036
  60.2091165  53.1736089  53.7014912  68.6661433  45.9676183  47.4740019
  69.3277867  45.4066851  47.3735928  68.0252845  45.4728213  47.7992710
  68.6690300  45.8112592  47.5072359  59.5538240  49.2646314  39.7820942
  59.9689389  48.9331338  39.0905438  58.7230170  49.0315216  39.6541079
  59.4926249  49.1817570  39.6611790  48.8826589  46.7490055  50.0719120
  48.7002162  46.7236941  49.2191413  49.6176258  47.2188993  50.1108029
  48.9640653  46.8151417  49.9517039  64.9526263  46.9841565  47.2152008
  65.1881853  47.1286764  46.3878859  65.1015827  47.7483973  47.6083522
  65.0092067  47.1180619  47.1515612  51.9472341  43.4675058  56.5801229
  52.6712313  43.4528089  57.0666124  52.0488477  44.1770413  56.0823197
  52.0690550  43.5699761  56.5780016  66.7816720  45.8243231  45.0521612
  67.1124937  46.3570871  44.4461707  67.3549808  45.8782119  45.7083563
  66.9150399  45.9112800  45.0599394  59.3217290  46.9474143  61.4450176
  58.5290271  47.2617654  61.6302796  59.4366217  47.1625611  60.6070961
  59.2212701  47.0257979  61.3488511  61.9948609  43.6708134  45.7345192
  62.0895464  44.4097428  46.1884817  61.3707453  43.2425609  46.1679756
  61.9157639  43.7169454  45.8653339  60.2501083  46.8494346  56.3835473
  60.8239945  46.2121591  56.5384037  60.1715887  46.8498429  55.5145130
  60.3234318  46.7559458  56.2781884  62.2471631  45.5156874  38.9682144
  62.1651793  45.5859061  39.8337131  62.8851351  46.0786617  38.7765885
  62.3291468  45.6095845  39.0672093  55.6064802  45.2817611  48.4356670
  55.3484046  44.4489346  48.4087970  55.6613285  45.5075224  47.5949171
  55.5764580  45.1915383  48.3076807  60.6865852  37.3846062  48.5360763
  59.9822179  36.8955248  48.6944682  60.7350826  37.3968537  47.6649207
  60.5895903  37.3135710  48.4300103  54.5799514  42.8355374  48.9221565
  54.0049105  42.9947542  49.5585526  54.2035190  42.1990783  48.4590016
  54.4402326  42.7653187  48.9476123  58.2472803  41.3078723  53.7813943
  57.8587235  40.8832941  53.1266135  57.5827501  41.5560873  54.2890970
  58.0919730  41.2817444  53.7601811  67.8896072  41.0653728  46.5561773
  67.6332636  40.2533669  46.3659656  68.7325386  41.0731295  46.3291961
  67.9762097  40.9465725  46.4946591  62.0699164  35.0053352  51.2937928
  62.4509676  34.3231523  51.6805802  61.2662448  34.7162954  51.1113592
  62.0075626  34.8620400  51.3241984  59.3511741  45.5377328  41.9790750
  60.1652380  45.8292221  41.8673522  59.2870882  44.8837190  41.4049043
  59.4614480  45.4842523  41.8779588  65.5721231  48.2203324  56.3920326
  65.3359868  47.3891389  56.2732387  66.2164460  48.1688931  56.9775170
  65.6315902  48.0901012  56.4606220  55.2219649  49.0098845  47.1063062
  55.8593596  48.7710593  47.6514856  55.6474721  49.2136004  46.3716223
  55.3795815  49.0049855  47.0780220  49.9132291  51.2487182  50.9897366
  49.9536437  51.5202033  50.1617146  50.4726816  51.7729090  51.4055154
  50.0015637  51.3662937  50.9289254  56.0291004  37.5107550  61.1600536
  55.7144446  38.2807113  60.8970099  55.7080937  36.9477806  60.5752763
  55.9349924  37.5417819  61.0341886  66.5957652  48.0047773  52.4548621
  66.2903469  48.7375830  52.8161936  65.8763867  47.5985702  52.1741407
  66.4444994  48.0529506  52.4661758  57.6041121  49.4871268  48.7856849
  57.6780129  49.3246440  49.6398699  58.4210627  49.6761457  48.5417330
  57.7357480  49.4908010  48.8754874  62.7055790  36.0475931  55.1058054
  63.4509382  35.8585741  54.6921480  62.2893095  36.5734169  54.5471911
  62.7540764  36.0978076  54.9622627  56.1445707  52.4506011  43.5170322
  56.4344005  52.0594992  42.7929549  56.8749188  52.6322716  43.9575597
  56.2952591  52.4199825  43.4753129  70.0818061  43.4185160  50.0563559
  70.6325983  42.7853229  50.2960651  70.0662176  43.9500552  50.7479063
  70.1603257  43.4034108  50.1942417  56.7340452  47.2523757  54.6023453
  56.2352146  47.9639525  54.6808341  57.5440676  47.5724423  54.5641615
  56.7796559  47.4050605  54.6080021  54.0851622  54.4273393  46.5830472
  53.8651918  54.1370748  47.3757139  53.8646144  53.7688348  46.0548384
  54.0199216  54.2873102  46.6219381  52.9968570  46.5146710  48.8486173
  52.7081818  45.8884181  49.3831901  53.8651918  46.4566997  48.9150854
  53.0828821  46.4134254  48.9377128  63.7846467  41.6581493  49.1668155
  63.4411233  40.9371828  49.5175405  63.8839510  41.4495344  48.3246514
  63.7488510  41.5205696  49.0939835  56.2519578  55.8002783  45.3661164
  56.9043636  55.2679226  45.5952190  55.5545187  55.4471436  45.7529038
  56.2450296  55.6692306  45.4573332  64.2459496  48.1207197  44.7092143
  64.8117529  48.7800407  44.6250686  63.5987400  48.4656895  45.1808546
  64.2338253  48.2689139  44.7664900  55.6607510  40.1104801  59.8985751
  54.8507286  40.4162581  59.7875593  56.1382197  40.8310384  60.0138335
  55.6110989  40.2619402  59.8992822  54.5199069  49.3250522  50.1468654
  53.9979823  49.4650814  50.8320519  54.9073090  48.5661187  50.3370771
  54.5002770  49.2336046  50.2769730  60.7166074  51.0645981  44.1329223
  60.4752750  50.3313842  43.7256288  60.8967407  51.6132838  43.4795556
  60.7073698  51.0368373  43.9759446  55.9465395  46.3554541  45.5450145
  55.7508178  46.9629276  44.9510448  56.1699741  45.6622485  45.0641819
  55.9500036  46.3432067  45.3866226  62.3037433  39.5773078  51.0427698
  61.4648533  39.6034357  50.8065962  62.3741800  40.2243813  51.6233045
  62.1905826  39.6769204  51.0936815  51.9951542  45.6467352  54.7685153
  52.5072639  45.9251605  54.1193913  51.7087884  46.3856646  55.1347966
  52.0286405  45.7969705  54.7275031  60.7506711  36.4758455  45.7755314
  61.4533064  36.2766203  45.2975272  60.4850900  35.7034397  46.0824158
  60.8153343  36.3321421  45.7500756  66.1794957  44.7841065  48.3288940
  66.0928931  44.9396491  49.1823719  65.7245436  45.4279140  47.9548345
  66.0998213  44.9016820  48.3996047  55.5135267  37.7393740  54.8286195
  55.3218464  37.7548875  55.6785618  56.3633863  37.9357414  54.8052850
  55.6110989  37.7708091  54.9509490  60.0520773  42.1051812  46.9514500
  59.8055487  42.0247563  47.7851288  60.3805896  41.3205280  46.7577027
  60.0642016  41.9778077  47.0462023  63.9468821  48.8135171  50.7401281
  63.8083181  49.5116217  51.2450023  63.1668819  48.6583828  50.3837463
  63.8112048  48.8935338  50.7627555  62.2846907  45.1131547  56.9923662
  62.2794945  44.2411363  56.9966089  62.9907900  45.3119716  56.5193118
  62.3891911  45.0135421  56.9230698  56.0117800  44.8408530  56.3637483
  56.1561176  45.4209739  55.7280593  56.3593448  45.2184827  57.0687337
  56.0845261  44.9829234  56.3736478  58.1837717  44.0398699  54.1462614
  57.4361031  44.2329713  53.7410892  58.3379242  43.2143918  53.9086735
  58.0960145  43.9463810  54.0508020  55.0845555  53.0311302  53.2298509
  55.2335119  52.4714218  52.5771914  55.8645557  53.1103304  53.6131028
  55.2219648  52.9596868  53.1895459  65.4422194  48.1713425  41.5017780
  65.0629003  47.3850563  41.4947069  64.7788440  48.7200282  41.3589424
  65.2880669  48.1358249  41.4798577  57.6098855  53.2025945  54.5083000
  57.5342527  52.5334756  55.0633789  57.5388715  53.9043733  55.0223666
  57.5879462  53.2070852  54.6659848  58.4239494  37.9349250  55.0358018
  58.8812108  38.6673224  55.1630810  58.4995823  37.5115715  55.7945274
  58.5030464  37.9806488  55.1659094  50.6672485  38.1815069  56.1247462
  50.1314675  37.5695427  56.4408229  50.7290250  38.7563205  56.7781128
  50.5968118  38.1761997  56.2682888  62.8966820  31.1139125  48.9051861
  63.0150388  31.5715588  48.1719164  62.7228996  30.3084386  48.6188078
  62.8885991  31.0632897  48.7552795  58.2669102  51.7226944  45.3406606
  59.0318994  51.4536588  45.0189270  58.1647192  51.2376954  46.0576669
  58.3650598  51.6116509  45.3986434  56.3021872  39.9251353  51.8799842
  55.5117947  39.7442814  52.2017178  56.6982495  39.1478306  51.8630136
  56.2438748  39.7838814  51.9252390  60.7887763  48.7539128  37.3206556
  61.5560748  48.8139253  36.9112407  60.3419072  48.1819569  36.8362874
  60.8361190  48.6775703  37.1884266  61.6865558  47.5593784  49.6059288
  61.0110560  47.3279016  50.1072675  61.6957935  46.9514967  48.9801393
  61.5884063  47.4352709  49.5875440  58.8159702  42.4011613  56.3623341
  58.7518844  43.2621569  56.2343478  58.9556890  42.0843606  55.5618892
  58.8275173  42.4811779  56.2251554  63.6882293  50.4158916  41.8369466
  63.7702130  51.2225902  41.5130917  64.1732035  50.4354875  42.5610239
  63.7719451  50.5379578  41.8956364  57.4978796  45.0943752  50.5039544
  57.0741045  45.2948251  49.7678562  57.3223652  44.2472600  50.6163844
  57.4089677  44.9992533  50.4113234  56.9990490  56.6094265  52.9661001
  57.4886420  55.9105054  52.7836666  56.4274722  56.3118135  53.5537058
  56.9875020  56.4620489  53.0262042  59.3240386  44.9653687  44.8060880
  59.8655931  44.4624068  45.2699500  59.6386945  44.9118882  43.9950365
  59.4504783  44.8833108  44.7544692  57.4926836  50.3571038  42.0900908
  57.5619656  49.4985577  42.2293908  58.2715291  50.5742919  41.7619932
  57.6179686  50.2623902  42.0618065  60.4729655  39.8589991  54.8583180
  60.6871625  39.2200906  54.3046534  59.8563554  40.3035815  54.4291042
  60.4134985  39.8300135  54.7133611  61.8834323  52.7808740  46.3037401
  61.4914115  52.4775455  45.5860267  62.0387395  53.6177830  46.1142355
  61.8487913  52.8592576  46.1693898  62.6368743  41.4679057  55.7966487
  61.8245425  41.1604947  55.8779660  63.0958678  40.9878057  56.3609199
  62.5849128  41.3515549  55.8921081  62.0473998  49.3458729  46.2443431
  61.6888653  49.5173371  47.0207464  61.5612709  49.8071934  45.6871430
  61.9232695  49.4397700  46.2768700  59.8644384  32.9689927  49.8470523
  58.9937942  32.9428648  49.8003832  60.1184725  32.7967119  49.0296368
  59.7737944  32.9400071  49.7190660  59.7322251  42.8739128  60.5795189
  60.2021882  43.4981244  60.9663063  59.7784131  42.2056104  61.1388404
  59.8090127  42.8673808  60.7195261  56.8893524  34.9796156  51.3043993
  56.3732013  34.2876347  51.4295572  56.3287453  35.6466933  51.2506592
  56.7300038  34.9759413  51.3150059  58.9585758  35.5189116  53.1336846
  58.5717511  35.5438147  53.9150376  58.4718695  34.9530794  52.6811362
  58.8298267  35.4384866  53.1824749  63.2078737  50.2362625  57.1910632
  63.8458458  49.7422820  56.8573088  62.5652829  50.1640025  56.6062859
  63.2072964  50.1521633  57.0552987  64.9335737  42.0851771  51.7576548
  64.5063345  41.9978119  51.0024647  64.2961790  42.1929546  52.3431392
  64.7765345  42.0884430  51.7321989  58.6242900  32.4056101  55.4247106
  59.2536018  32.9416401  55.1468176  58.7928762  32.3133460  56.2760671
  58.7420694  32.4717463  55.5095634  58.4256814  37.1927296  57.6973517
  59.2530244  36.9212445  57.7532132  58.4464661  37.9888137  58.0537335
  58.5509665  37.2707050  57.7588700  63.2632994  50.9282433  53.8315989
  64.0525372  50.5771498  53.9518071  63.4376592  51.7418821  53.5692623
  63.4053276  50.9968290  53.8103857  53.0026304  44.3391159  50.8843778
  52.1614311  44.2395033  51.0922672  53.2116312  45.1086639  51.2358099
  52.9090997  44.4383202  50.9671093  62.1166818  34.9391990  48.3932407
  62.3216411  34.8714297  49.2389405  61.7893242  35.7450811  48.3253585
  62.0982066  35.0477930  48.5092063  56.8142969  42.2672558  50.1341375
  56.5106107  41.7128546  50.7351783  56.1122390  42.4464768  49.6469410
  56.6659179  42.2117340  50.1511081  55.8709066  39.5773078  44.6986077
  56.1468801  38.8591990  44.2863645  56.4707736  40.1757997  44.4907183
  56.0002331  39.5593448  44.6066838  54.8761320  49.4822278  54.8413473
  54.7681675  49.4924341  55.7075531  55.0857102  50.3077059  54.6518427
  54.8911431  49.6063353  54.9417565  65.3700506  35.4923754  47.8735173
  64.7574819  35.9794156  48.2588905  65.4664681  34.8167245  48.4172824
  65.2938403  35.4642063  48.0114031  59.3719587  37.2486595  42.9732672
  59.8263333  37.4197155  43.6980517  59.8459633  36.6354706  42.5730448
  59.5087907  37.1837480  43.0206434  52.8935112  46.7334921  52.3035411
  52.3023045  47.3744419  52.2738426  53.6556136  47.1572538  52.2766710
  52.9183373  46.8910759  52.2950558  53.2895735  37.8936919  52.9703428
  53.7497217  37.9675848  53.7078552  53.3351842  38.6918173  52.6203250
  53.3646290  38.0231066  53.0276185  54.9379085  38.5603614  57.5375455
  54.5464650  37.9136961  57.9731233  55.1064947  39.1515049  58.1569711
  54.9049995  38.5517881  57.6938161  69.0125534  46.5640691  53.3012689
  69.0708657  47.0127339  54.0472666  68.3792001  46.9739503  52.8642769
  68.9276829  46.6914425  53.3465237  62.6524628  52.1844232  49.7367435
  62.4544317  52.6735047  49.0423647  62.0312340  52.3885474  50.3151569
  62.5312193  52.2860771  49.7190658  56.7132607  43.9529129  44.0777679
  57.4574652  44.3403406  44.3160629  56.8593303  43.1086555  44.2418167
  56.8443192  43.8859602  44.1371649  58.6312182  35.7479388  49.1109541
  57.7848227  35.9202196  48.9850891  58.6283315  34.9428732  49.4475369
  58.5059332  35.6540417  49.1420668  59.7010483  39.5254603  49.9771599
  59.2270437  38.9996365  50.4876910  60.0728618  38.9784075  49.4086460
  59.6860372  39.3670599  49.9686746  50.0783513  41.5226109  55.3455145
  50.9409126  41.4221819  55.2592474  49.7475296  40.9420819  54.7840717
  50.1568709  41.4217736  55.2500550  65.9647213  44.5856978  51.3878379
  65.7245436  43.7463393  51.3920806  66.4439220  44.6657145  52.1119153
  65.9999397  44.4738378  51.4953182  61.6293982  40.4191157  43.0397353
  61.1017001  40.5019901  42.3503061  62.0889690  41.1609029  43.0361997
  61.6195833  40.5411820  42.9372048  67.9652400  41.3658435  49.3407638
  67.7262170  41.3254270  48.5028423  68.1286302  42.2129588  49.4673360
  67.9542704  41.4850520  49.2361120  64.5698430  45.7508385  55.2712684
  65.2932629  45.2980911  55.0923704  64.3048393  46.0313050  54.4885011
  64.6379704  45.7259353  55.1291399  53.4385299  40.3468558  52.0065563
  52.8138369  40.3586950  51.3991515  53.1030894  40.8228733  52.6556803
  53.2970791  40.4187075  52.0122131  50.1510974  48.4069018  53.4469327
  49.6210899  47.7161457  53.4964302  50.4236068  48.3979204  52.6182036
  50.1135697  48.3036150  53.3316743  61.1831065  48.9894721  42.1707010
  61.9065264  49.4552834  42.0271583  60.7431656  49.0568330  41.4204607
  61.2246757  49.0678557  42.0391791  60.3517220  45.8492263  53.4207699
  59.7374213  45.3050313  53.7156334  60.8684505  45.3356499  52.9413515
  60.3372882  45.6928672  53.3931927  59.5913517  46.9196533  51.1551997
  59.1641125  46.2946252  50.7217433  59.5838461  46.6371455  51.9811005
  59.5272658  46.7849314  51.2131825  52.7076044  41.9561706  54.2240431
  52.8669531  41.2005030  54.6292153  52.5268938  42.5052646  54.8781169
  52.7041403  41.9255520  54.3803137  60.6496347  34.1222942  54.7791221
  60.1536908  34.3186616  54.0882787  61.4065409  34.5215610  54.6080022
  60.6883172  34.2100675  54.6511357  57.9199227  37.7965288  51.3694531
  57.9441714  37.2625400  50.6807311  58.1710700  37.2882596  52.0320122
  57.9609145  37.6426192  51.3659176  56.3830162  46.0896846  58.8520570
  55.5325792  46.2268560  58.9878215  56.5458290  45.3560624  59.2968272
  56.2814025  46.0010947  58.9376169  55.6214912  43.0396616  53.0474175
  54.7906842  43.2070434  52.8409423  55.5666430  42.6632566  53.8323060
  55.4904327  43.0086347  53.1322703  53.4298696  36.5305509  58.6830585
  54.0551399  35.9867641  58.9560018  52.9749176  36.0500426  58.1138376
  53.4546956  36.3794990  58.6392179  67.0033744  44.7134796  53.7743233
  67.5951585  45.3532046  53.8061431  67.4392739  44.0157832  54.0635300
  67.1552176  44.7053146  53.8224066  58.8327134  49.1352168  54.4001127
  58.3252225  49.6888015  54.8441758  58.5353780  49.1960458  53.5819902
  58.7132019  49.2258479  54.3449584  60.9989316  37.5005488  53.2425790
  61.4244388  37.0478014  52.6309317  60.3846310  36.9465558  53.5190578
  60.9717962  37.3519464  53.1930815  61.4434915  53.0515426  42.3305071
  60.7264224  52.8776288  41.8652308  62.0941652  52.8167998  41.7980557
  61.4336765  52.9911218  42.1834289  59.4383539  33.9720587  46.6516367
  58.7951857  33.8218234  47.2201506  59.0982946  33.7262933  45.8865472
  59.2928617  33.9132710  46.6219382  64.0282886  41.9280014  46.0746376
  63.3574076  42.4709716  45.9459441  64.7222636  42.3974870  45.8328071
  64.0311753  42.0778285  46.0201904  58.0769619  54.0676726  51.3058134
  57.8535274  53.3095555  51.6742160  57.5879463  54.0974747  50.5838574
  57.9713068  53.9598951  51.2534875  64.1911013  38.3835898  48.9836749
  64.5438623  37.9565621  49.6582548  63.3325815  38.2986741  49.1137825
  64.1160458  38.3080639  49.1031759  62.1894279  41.6471266  52.9321591
  62.1692206  41.4654562  53.7856370  62.2373480  42.5183285  52.9081175
  62.1928920  41.7487805  53.0544886  60.1340609  48.2358458  58.8570068
  60.0936464  47.5908135  58.2715224  60.9463927  48.1795076  59.1695480
  60.2483762  48.1317425  58.8167017  56.7248076  54.2877184  48.7595219
  56.3108475  53.6251315  48.3699060  57.4095451  54.4355043  48.2390913
  56.7646448  54.2117843  48.6251716  60.0913371  53.4467270  49.5118835
  59.6929654  53.5569540  48.7439656  59.4764590  53.6549336  50.0945395
  59.9412260  53.4940838  49.4850135  58.6641273  40.0541417  42.3792975
  58.0706112  40.3758414  41.8277542  58.7016550  39.2082513  42.1714081
  58.5815662  39.9765746  42.2675746  65.6235073  33.5054310  49.9121062
  65.1165938  32.7983449  49.8442239  66.4202507  33.1747499  50.0422138
  65.6662312  33.3527461  49.9220057  61.5399089  40.0120922  45.8094725
  61.3112782  40.0353623  44.9673083  61.7997165  39.1878389  45.9289736
  61.5445277  39.8937002  45.7019923  55.8218318  41.8655395  55.4119825
  55.3097221  41.2576578  55.7704857  55.6497814  42.5811988  55.8793801
  55.7207955  41.8818694  55.5336049  50.6684032  40.3092970  58.0622187
  50.4986623  40.9694345  57.5170394  50.2249982  40.5199532  58.7834676
  50.5783366  40.4378952  58.0883817  54.5943852  38.5497468  47.1048921
  55.0701218  38.9114548  46.4699102  54.0932451  39.2053936  47.3849064
  54.5909211  38.6991657  47.0525662  67.8255213  48.0219236  42.8961926
  68.2088819  48.7710592  43.1260023  67.0299327  48.2685056  42.6373915
  67.7648995  48.1688930  42.8919500  59.6987388  39.7879640  57.8522081
  60.2558818  39.5593449  57.2200546  59.3748453  40.5485305  57.5757293
  59.7333798  39.8663476  57.7178578  47.5686097  43.2139836  53.3210677
  47.0212816  42.5440481  53.4391545  48.3578475  42.8469684  53.3854144
  47.6038280  43.0604822  53.3479378  57.4170505  42.8747293  58.8174088
  58.1681832  43.1898970  59.1313642  57.6093082  42.6726464  57.9908010
  57.5561919  42.8914675  58.7417484  56.6370505  40.6938668  40.4722305
  57.0169470  40.7118297  39.6873420  55.8963101  41.1392657  40.3513152
  56.5839343  40.7620443  40.3385873  64.2655795  39.0020859  46.0597884
  64.2650022  38.8469516  46.9182160  64.0611975  39.8483846  46.0039269
  64.2355573  39.1041480  46.1785823  61.9896647  43.6818361  49.7134090
  62.4850313  42.9641356  49.6738111  61.1796423  43.3789159  49.5988577
  61.9440541  43.5316007  49.6907816  64.0548466  46.4322049  52.4011219
  64.4803538  45.9096470  51.8481644  63.6905386  47.0302886  51.8799842
  64.0635069  46.4432276  52.2420229  53.6902546  54.7286266  51.1608565
  54.0049105  55.5422654  51.1686346  54.0995959  54.3436485  51.8290724
  53.7970644  54.7914968  51.2612656  60.6427066  50.1456313  48.7312377
  61.1138244  50.8596575  48.9002362  60.9787244  49.5455063  49.2672246
  60.7622181  50.1627777  48.8344753  57.5596561  34.9183783  55.6870471
  57.6924466  34.1214777  56.0151447  57.9441713  35.4450186  56.2668747
  57.6352889  34.8783700  55.8213974  61.2801012  49.9374247  55.4940069
  60.7321958  49.3132131  55.2260135  61.7414041  50.1268519  54.7784149
  61.2668221  49.8733297  55.3490500  60.6328916  31.8414110  52.2851565
  59.8274880  31.7311839  52.6019403  60.5035651  31.9426565  51.4281431
  60.4949049  31.8397780  52.2059605  64.0894876  38.0059601  52.8791262
  63.5057865  38.5068808  52.4668829  64.4099170  37.4989158  52.2455585
  64.0508052  38.0051436  52.7249769  55.2185007  34.9142958  53.9348365
  55.7629420  34.5734085  54.5252707  55.2721943  35.7728420  54.0769650
  55.3074127  34.9898218  54.0430239  51.0315566  48.6759374  50.8087173
  51.6360424  48.6355209  50.1800994  50.8242879  49.5230526  50.8391229
  51.0904463  48.7947377  50.7203290  60.8459338  50.9425320  52.0249411
  61.6657712  50.7988286  52.2865706  60.5653416  51.5671519  52.5665848
  60.9256082  51.0135672  52.1437350  46.2666848  47.6593992  50.6786096
  46.1691126  46.8490263  50.9876153  47.0495718  47.6385785  50.2932364
  46.3682985  47.5361082  50.6672959  70.5172674  57.6865822  49.7445217
  69.6610569  57.8474321  49.7954334  70.5640327  56.8157886  49.7650278
  70.3971785  57.5816624  49.7551283  59.6763614  63.2567219  47.3997555
  59.4413798  62.4234871  47.2929824  59.8149254  63.5371885  46.5858756
  59.6619276  63.1750722  47.2639910  61.9753701  55.4252950  50.2981863
  61.3558733  54.8345597  50.1291878  61.8737565  56.0164385  49.6646186
  61.8691377  55.4257032  50.1786852  69.0721597  57.1652491  44.6314326
  69.7701761  57.3440619  45.1235789  69.3873929  56.6422831  44.0084715
  69.2216934  57.1146263  44.6116336  61.7022834  58.9705231  52.5425432
  61.5781531  59.5567677  53.1775251  62.3541119  58.4765427  52.8437707
  61.7796484  58.9844036  52.6811361  69.2609532  63.5522936  44.6194117
  69.7003168  62.9440037  45.0648890  69.1114195  63.1730310  43.8479582
  69.3030998  63.4061407  44.5713285  66.7281175  62.1466948  51.8212943
  67.3730178  61.6539391  51.5023891  66.9682952  62.2891735  52.6479021
  66.8591760  62.0944390  51.8962476  67.2448460  52.5344888  48.7135600
  66.9151790  52.9856032  48.0439299  66.5693462  52.4561051  49.2608607
  67.0958897  52.5896023  48.6958824  65.6836910  62.4198129  41.8730090
  65.0994125  62.9248160  42.2795954  65.2807005  62.1940516  41.1326682
  65.5376214  62.4606377  41.8235115  61.2380938  68.1352890  48.6753761
  60.7548517  68.8603379  48.6513345  62.0504257  68.4329020  48.7863919
  61.2871686  68.2855243  48.6881040  70.1414124  58.6663781  40.3499010
  70.3810128  58.8741764  39.5374353  70.4629965  57.8621289  40.4587955
  70.2251282  58.5777882  40.2459563  65.4504414  50.5957176  44.1958548
  66.2050382  50.9635493  43.9575598  65.2731949  50.9696731  44.9637728
  65.5358893  50.7055364  44.2743437  63.8061479  53.0027495  40.8936661
  63.6237052  53.2199376  40.0677654  64.6687092  53.1166508  40.9495276
  63.9066069  53.0517393  40.7791148  63.4175911  64.8415418  48.3359649
  64.2564810  65.0738350  48.3833411  63.4487680  63.9719729  48.2666684
  63.5457629  64.7472364  48.3324294  69.4861198  50.0053906  43.9285685
  70.2147359  49.8269861  43.4823841  69.5756091  50.8471986  44.1392863
  69.6067860  50.1037784  43.8939203  59.4465759  61.4816584  52.7907376
  59.1804174  60.6655700  52.9498366  59.4604323  61.5269739  51.9202892
  59.4090481  61.3673488  52.6860858  63.3523506  56.2801668  39.4059134
  62.6381683  55.9939848  39.8181567  63.8367475  56.6198294  40.0465522
  63.3182869  56.2883318  39.5614769  64.1964366  55.0194962  55.4374384
  63.5036162  54.5491942  55.6835115  64.8124693  54.7933266  56.0116091
  64.1848895  54.9162094  55.5583536  59.8559173  62.2675363  50.0719120
  59.6734746  62.2422249  49.2191413  60.5908842  62.7374301  50.1108029
  59.9373237  62.3336725  49.9517039  59.8230083  59.1468864  50.2218187
  60.4003586  59.0105314  50.8610432  59.1244145  58.6904648  50.4763771
  59.8051105  59.0591130  50.3540477  66.5797385  60.8002919  48.4356670
  66.3216630  59.9674654  48.4087970  66.6345868  61.0260532  47.5949171
  66.5497163  60.7100691  48.3076807  71.6598435  52.9031370  48.5360763
  70.9554762  52.4140556  48.6944682  71.7083410  52.9153844  47.6649207
  71.5628487  52.8321018  48.4300103  65.5532097  58.3540682  48.9221565
  64.9781689  58.5132850  49.5585526  65.1767774  57.7176091  48.4590016
  65.4134910  58.2838495  48.9476123  69.2205386  56.8264031  53.7813943
  68.8319819  56.4018249  53.1266135  68.5560084  57.0746181  54.2890970
  69.0652314  56.8002752  53.7601811  55.2988916  57.9980757  46.9366006
  55.3849168  57.6212625  47.7179536  55.9264714  57.6241202  46.4585964
  55.4045467  57.8866239  46.9811483  70.3244324  61.0562636  41.9790750
  71.1384963  61.3477529  41.8673522  70.2603466  60.4022498  41.4049043
  70.4347063  61.0027830  41.8779588  66.1952233  64.5284153  47.1063062
  66.8326180  64.2895901  47.6514856  66.6207304  64.7321312  46.3716223
  66.3528399  64.5235163  47.0780220  60.8864875  66.7672490  50.9897366
  60.9269020  67.0387341  50.1617146  61.4459399  67.2914398  51.4055154
  60.9748221  66.8848245  50.9289254  66.8355048  59.7486443  41.4437952
  67.2200200  59.5294150  42.1954497  66.5866668  60.5749388  41.5739028
  66.8557120  59.8384589  41.5739028  62.3379461  65.3514439  45.8151292
  61.5117579  65.5976176  45.6885571  62.3991452  65.2726519  46.6813350
  62.2253628  65.3759388  45.9240237  64.5555485  51.4183380  46.7746732
  63.6877910  51.4905979  46.8404342  64.8430689  52.2205459  46.9634707
  64.4695233  51.5477527  46.8121499  63.9701153  62.0332018  48.8486173
  63.6814402  61.4069489  49.3831901  64.8384501  61.9752305  48.9150854
  64.0561405  61.9319562  48.9377128  64.1733426  63.6727269  44.7728539
  64.9279394  64.0540308  44.9864001  63.5804039  64.1238412  45.2275235
  64.1970140  63.7956096  44.8711417  65.4931653  64.8435830  50.1468654
  64.9712407  64.9836122  50.8320519  65.8805673  64.0846494  50.3370771
  65.4735354  64.7521354  50.2769730  62.4822837  54.8941639  44.2163609
  62.1947633  54.5242909  43.4795556  63.1693305  55.3636494  43.9547314
  62.5411734  54.9088608  44.0678684  66.9197979  61.8739849  45.5450145
  66.7240761  62.4814584  44.9510448  67.1432324  61.1807793  45.0641819
  66.9232620  61.8617375  45.3866226  65.3176509  58.7594587  45.6631013
  66.0399161  58.9235745  45.2034819  64.8384501  59.4804252  45.5570353
  65.3540239  58.8892817  45.5796627  60.0551032  55.6722851  45.0648890
  60.1567168  56.4749013  45.3929865  60.8506918  55.4710187  44.7671970
  60.1878937  55.7608750  45.0684245  66.4867851  53.2579048  54.8286195
  66.2951048  53.2734183  55.6785618  67.3366447  53.4542722  54.8052850
  66.5843573  53.2893399  54.9509490  60.8714764  55.7870030  52.8070011
  60.7300256  54.9353970  52.9314519  61.1555327  55.8298690  51.9832217
  60.8922610  55.6669780  52.7037635  71.0253356  57.6237120  46.9514500
  70.7788070  57.5432871  47.7851288  71.3538479  56.8390588  46.7577027
  71.0374600  57.4963385  47.0462023  69.3972078  53.4534557  55.0358018
  69.8544692  54.1858532  55.1630810  69.4728407  53.0301023  55.7945274
  69.4763048  53.4991796  55.1659094  61.6405069  53.7000377  56.1247462
  61.1047259  53.0880735  56.4408229  61.7022834  54.2748513  56.7781128
  61.5700702  53.6947305  56.2682888  67.2754456  55.4436661  51.8799842
  66.4850531  55.2628122  52.2017178  67.6715079  54.6663614  51.8630136
  67.2171332  55.3024122  51.9252390  68.4711380  60.6129060  50.5039544
  68.0473629  60.8133559  49.7678562  68.2956235  59.7657908  50.6163844
  68.3822261  60.5177841  50.4113234  63.7593825  61.1081111  45.9367516
  63.9158444  61.0427914  46.7923508  64.0994418  61.8829664  45.7246196
  63.8327060  61.2130309  46.0322110  70.2972969  60.4838995  44.8060880
  70.8388515  59.9809376  45.2699500  70.6119529  60.4304190  43.9950365
  70.4237367  60.4018416  44.7544692  71.4462239  55.3775299  54.8583180
  71.6604208  54.7386214  54.3046534  70.8296138  55.8221123  54.4291042
  71.3867568  55.3485443  54.7133611  60.3328086  58.2916062  46.2528283
  60.7127051  58.7100607  45.5888551  59.7583451  58.8729517  46.5597127
  60.3039411  58.4393921  46.2005024  70.8376968  48.4875235  49.8470523
  69.9670525  48.4613956  49.8003832  71.0917309  48.3152427  49.0296368
  70.7470528  48.4585379  49.7190660  67.8094947  60.5443202  38.7843666
  68.0987472  61.3208084  39.0587240  67.8966746  60.0331933  39.4858165
  67.8649203  60.5835120  38.9286164  67.8626108  50.4981463  51.3043993
  67.3464597  49.8061655  51.4295572  67.3020037  51.1652241  51.2506592
  67.7032621  50.4944721  51.3150059  69.9318341  51.0374423  53.1336846
  69.5450095  51.0623455  53.9150376  69.4451279  50.4716102  52.6811362
  69.8030850  50.9570174  53.1824749  69.5975483  47.9241409  55.4247106
  70.2268601  48.4601709  55.1468176  69.7661346  47.8318768  56.2760671
  69.7153278  47.9902771  55.5095634  63.9758888  59.8576467  50.8843778
  63.1346894  59.7580341  51.0922672  64.1848896  60.6271947  51.2358099
  63.8823580  59.9568510  50.9671093  61.4534455  57.4796003  48.7128529
  61.0591153  57.5539015  47.9378638  60.8974572  57.8653950  49.2636890
  61.3137267  57.5477778  48.6796188  67.7875553  57.7857866  50.1341375
  67.4838690  57.2313854  50.7351783  67.0854974  57.9650076  49.6469410
  67.6391763  57.7302648  50.1511081  66.8441650  55.0958385  44.6986077
  67.1201384  54.3777298  44.2863645  67.4440319  55.6943305  44.4907183
  66.9734914  55.0778756  44.6066838  70.3452170  52.7671903  42.9732672
  70.7995917  52.9382463  43.6980517  70.8192216  52.1540014  42.5730448
  70.4820491  52.7022788  43.0206434  63.8667696  62.2520229  52.3035411
  63.2755629  62.8929727  52.2738426  64.6288719  62.6757846  52.2766710
  63.8915956  62.4096067  52.2950558  64.2628319  53.4122227  52.9703428
  64.7229800  53.4861156  53.7078552  64.3084425  54.2103481  52.6203250
  64.3378874  53.5416374  53.0276185  67.6865190  59.4714437  44.0777679
  68.4307235  59.8588714  44.3160629  67.8325887  58.6271863  44.2418167
  67.8175775  59.4044910  44.1371649  69.6044766  51.2664696  49.1109541
  68.7580811  51.4387504  48.9850891  69.6015898  50.4614040  49.4475369
  69.4791916  51.1725725  49.1420668  70.6743066  55.0439911  49.9771599
  70.2003020  54.5181673  50.4876910  71.0461202  54.4969383  49.4086460
  70.6592955  54.8855907  49.9686746  61.0516096  57.0411417  55.3455145
  61.9141709  56.9407126  55.2592474  60.7207879  56.4606127  54.7840717
  61.1301293  56.9403044  55.2500550  64.4117882  55.8653866  52.0065563
  63.7870952  55.8772258  51.3991515  64.0763477  56.3414041  52.6556803
  64.2703374  55.9372383  52.0122131  64.5959631  54.2078985  38.0638248
  64.2472435  54.8598710  38.5269797  64.1156077  54.1936098  37.3362119
  64.4729875  54.3022038  38.0249339  61.1243558  63.9254326  53.4469327
  60.5943482  63.2346765  53.4964302  61.3968651  63.9164512  52.6182036
  61.0868280  63.8221458  53.3316743  63.6808628  57.4747014  54.2240431
  63.8402114  56.7190338  54.6292153  63.5001521  58.0237954  54.8781169
  63.6773987  57.4440828  54.3803137  68.8931810  53.3150596  51.3694531
  68.9174297  52.7810708  50.6807311  69.1443284  52.8067904  52.0320122
  68.9341729  53.1611499  51.3659176  56.4039400  60.5982090  50.8037675
  56.2982849  60.5528935  49.9389759  55.6539620  60.9435871  51.0851960
  56.2775003  60.6422999  50.7175005  65.1733133  52.0421414  50.7500276
  65.2131504  52.5430620  51.4634983  64.3482797  52.1331807  50.4806199
  65.0572658  52.1303230  50.8150814  66.5947496  58.5581924  53.0474175
  65.7639426  58.7255742  52.8409423  66.5399013  58.1817874  53.8323060
  66.4636911  58.5271655  53.1322703  64.4031279  52.0490817  58.6830585
  65.0283983  51.5052949  58.9560018  63.9481759  51.5685734  58.1138376
  64.4279540  51.8980298  58.6392179  64.9683540  56.8337515  43.5764292
  65.1086501  57.3309979  44.2792934  65.4666073  56.1323810  43.7178506
  65.0624621  56.8039494  43.7015871  64.9983762  57.7004626  40.9056869
  65.6328842  58.2965051  40.8406331  65.0809373  57.4008084  41.7202739
  65.1040313  57.7445534  41.0159956  66.5762745  53.6318602  40.8802311
  66.8978586  53.1521684  40.2261573  66.8389689  54.4418248  40.6893123
  66.6628770  53.6808499  40.7557803  61.5036750  59.8972467  44.1746415
  62.0128979  60.4936974  44.5557721  61.9771022  59.6298441  43.4922835
  61.6480126  59.9458282  44.1300938  70.4116123  49.4905895  46.6516367
  69.7684441  49.3403542  47.2201506  70.0715530  49.2448241  45.8865472
  70.2661200  49.4318018  46.6219382  63.8627282  56.5328725  47.0419596
  63.1439271  56.9492858  47.3092459  64.2339644  57.0982964  46.4911234
  63.8119214  56.6778007  47.0002403  69.6373856  55.5726725  42.3792975
  69.0438695  55.8943722  41.8277542  69.6749134  54.7267821  42.1714081
  69.5548245  55.4951054  42.2675746  61.6416616  55.8278278  58.0622187
  61.4719206  56.4879653  57.5170394  61.1982566  56.0384839  58.7834676
  61.5515949  55.9564260  58.0883817  65.5676435  54.0682776  47.1048921
  66.0433801  54.4299856  46.4699102  65.0665035  54.7239244  47.3849064
  65.5641794  54.2176965  47.0525662  58.5418680  58.7325144  53.3210677
  57.9945400  58.0625789  53.4391545  59.3311059  58.3654992  53.3854144
  58.5770864  58.5790130  53.3479378  67.6103088  56.2123976  40.4722305
  67.9902053  56.2303605  39.6873420  66.8695684  56.6577965  40.3513152
  67.5571926  56.2805751  40.3385873  57.3005650  57.9445952  50.4756700
  57.1227411  57.4922561  51.2011616  57.0124672  58.7472113  50.6595178
  57.2318603  57.9968509  50.6100203  68.4087842  63.0501482  41.8631095
  67.5999165  62.7268156  41.8164404  68.9162751  62.3434704  41.7959344
  68.3637509  62.8982799  41.8461389  59.0378120  60.4773675  47.5878459
  58.1723639  60.4659366  47.4761230  59.1376936  60.2903898  48.4349598
  58.9252287  60.4479737  47.6967404  68.5329144  50.4369091  55.6870471
  68.6657050  49.6400085  56.0151447  68.9174297  50.9635494  56.2668747
  68.6085473  50.3969008  55.8213974  71.6061499  47.3599417  52.2851565
  70.8007463  47.2497147  52.6019403  71.4768235  47.4611873  51.4281431
  71.4681632  47.3583088  52.2059605  67.6022259  52.4385504  43.1549936
  68.4237953  52.6083817  42.9131631  67.1391910  52.5932765  42.4316234
  67.6553421  52.4867237  43.0121581  66.1917591  50.4328266  53.9348365
  66.7362004  50.0919393  54.5252707  66.2454527  51.2913728  54.0769650
  66.2806710  50.5083526  54.0430239  62.0048150  64.1944682  50.8087173
  62.6093007  64.1540517  50.1800994  61.7975462  65.0415834  50.8391229
  62.0637047  64.3132685  50.7203290  57.2399432  63.1779300  50.6786096
  57.1423710  62.3675571  50.9876153  58.0228302  63.1571093  50.2932364
  57.3415569  63.0546390  50.6672959  31.6766886  -2.3949252  32.4422496
  30.9249786  -2.7733714  32.2138541  32.1252898  -2.3630819  31.6941306
  31.6316553  -2.4463645  32.2979998  36.6696138  -0.0209614  33.8119154
  37.0535517   0.5477284  33.2723930  36.6055279  -0.7460104  33.3324970
  36.7169565  -0.0434151  33.6613017  33.0952382   2.5346729  36.1100124
  33.7389838   2.9759893  36.4996283  33.4208638   1.7300155  36.0230383
  33.2384211   2.4811924  36.1545602  28.0134012  -1.4824903  35.6093808
  27.5301590  -0.7574413  35.5853392  28.8257330  -1.1848773  35.7203966
  28.0624759  -1.3322549  35.6221087  30.8678209  -0.9668727  35.7614088
  31.5698788  -1.4816738  35.8186844  30.7875692  -0.6394576  36.5660963
  30.9601969  -0.9954501  35.8886880  38.0102210  -0.8978787  40.4870035
  37.2117456  -1.1379287  40.7443903  38.4588222  -0.8464394  41.2337082
  37.9576821  -0.9256396  40.6354959  27.6617948  -2.8505303  37.9237413
  27.7022093  -2.5790452  37.0957193  28.2212472  -2.3263395  38.3395201
  27.7501294  -2.7329548  37.8629301  33.8931363  -1.6486474  30.4510369
  34.1829662  -2.0397492  29.7269596  34.6234844  -1.4669769  30.8915644
  34.0438248  -1.6792660  30.4093176  31.8337279   0.3280909  33.5170519
  31.6137574   0.0378263  34.3097186  31.6131801  -0.3304136  32.9888431
  31.7684873   0.1880617  33.5559427  34.0005235   1.7010299  32.3001211
  34.6529293   1.1686741  32.5292237  33.3030844   1.3478951  32.6869085
  33.9935953   1.5699822  32.3913379  32.8331212  -1.0681182  40.1638556
  32.9820775  -1.6278267  39.5111961  33.6131214  -0.9889181  40.5471075
  32.9705305  -1.1395617  40.1235505  35.3584512  -0.8966540  41.4423047
  35.2828183  -1.5657729  41.9973835  35.2874371  -0.1948751  41.9563713
  35.3365119  -0.8921632  41.5999895  34.7476147   2.5101780  39.9001048
  35.2372077   1.8112569  39.7176712  34.1760379   2.2125650  40.4877105
  34.7360677   2.3628004  39.9602089  35.8255276  -0.0315758  38.2398181
  35.6020931  -0.7896929  38.6082207  35.3365120  -0.0017737  37.5178621
  35.7198725  -0.1393534  38.1874922  34.4733733   0.1884700  35.6935266
  34.0594132  -0.4741170  35.3039107  35.1581107   0.3362558  35.1730960
  34.5132105   0.1125358  35.5591763  37.8399027  -0.6525215  36.4458882
  37.4415311  -0.5422945  35.6779702  37.2250247  -0.4443149  37.0285442
  37.6897917  -0.6051647  36.4190182  31.4388203   0.6293781  38.0948612
  31.7534762   1.4430170  38.1026393  31.8481616   0.2444000  38.7630771
  31.5456301   0.6922484  38.1952703  48.2658330   3.5873338  36.6785264
  47.4096226   3.7481836  36.7294381  48.3125984   2.7165402  36.6990325
  48.1457442   3.4824140  36.6891330  51.5752047   9.8559863  46.2845720
  52.2818814   9.3611894  46.4132655  51.7639982  10.2968945  45.5548378
  51.7079952   9.8478214  46.1954766  48.1024430  13.5461425  27.8708043
  47.7675798  14.2238347  27.4352265  48.6151300  13.1566736  27.2824914
  48.1290011  13.5886003  27.7194834  47.6428721  15.4975694  33.8119154
  48.0268101  16.0662592  33.2723930  47.5787862  14.7725204  33.3324970
  47.6902148  15.4751157  33.6613017  51.1110151   5.6465382  39.3216916
  51.6566111   6.3250468  39.3810885  51.0527028   5.5052842  38.4618497
  51.1826066   5.7257383  39.2028976  52.8875220   7.0749989  30.1950644
  52.7714746   7.8257675  30.6242782  53.6831107   6.8173942  30.4446731
  52.9879809   7.1484836  30.2954735  37.4249270   9.1574734  34.3337602
  37.1899455   8.3242387  34.2269871  37.5634911   9.4379400  33.5198803
  37.4104933   9.0758238  34.1979957  39.7239358   1.3260465  37.2321910
  39.1044390   0.7353112  37.0631924  39.6223222   1.9171900  36.5986233
  39.6177033   1.3264547  37.1126899  44.7705546  11.0644012  31.4819986
  45.0921387  11.6049219  30.8781294  45.4177642  10.4940783  31.6142276
  44.9131601  11.0603187  31.4127021  46.8207254   3.0660007  31.5654373
  47.5187418   3.2448134  32.0575836  47.1359586   2.5430346  30.9424762
  46.9702591   3.0153779  31.5456383  39.4508491   4.8712747  39.4765479
  39.3267188   5.4575192  40.1115297  40.1026775   4.3772942  39.7777754
  39.5282140   4.8851551  39.6151408  47.0095189   9.4530452  31.5534164
  47.4488824   8.8447552  31.9988937  46.8599852   9.0737825  30.7819629
  47.0516655   9.3068923  31.5053332  44.4766832   8.0474464  38.7552990
  45.1215834   7.5546907  38.4363938  44.7168609   8.1899250  39.5819068
  44.6077417   7.9951906  38.8302523  47.0152923  10.8929369  38.4059882
  47.2976166  10.0980775  38.1846638  47.7439084  11.3709957  38.4264943
  47.1642487  10.8463966  38.3762897  50.6104526   7.8057633  28.5064933
  50.5255821   8.6618600  28.6514502  51.0988909   7.5301957  29.1747093
  50.6693423   7.8914954  28.6267015  51.5422959   4.4242427  30.0062669
  51.0134430   4.6402061  30.6659975  52.0647979   5.1178566  29.9263638
  51.5411412   4.5585564  30.0918268  56.9971012   9.9988732  35.3795713
  56.1668715  10.2099375  35.5429130  56.9480264   9.1725786  35.1037997
  56.8677747   9.9078338  35.3633078  43.4322567   8.3205644  28.8070136
  42.8479782   8.8255675  29.2136000  43.0292662   8.0948031  28.0666728
  43.2861870   8.3613892  28.7575162  45.0580749  12.8292586  38.2143622
  44.5407691  12.4700001  37.6104931  45.7555140  12.3054760  38.2249689
  45.0846330  12.6990274  38.1273881  48.7144341  13.2787400  44.1759796
  48.8027687  13.0913540  45.0238006  49.1434054  12.6324829  43.7764642
  48.7906444  13.1550408  44.2431547  46.2814801  12.5618560  43.1577458
  45.7185636  12.1491170  43.6817119  47.0435824  12.4871465  43.5770601
  46.3109250  12.4895960  43.2970458  47.8899781   4.5671296  27.2839057
  48.1295785   4.7749280  26.4714400  48.2115622   3.7628805  27.3928002
  47.9736939   4.4785397  27.1799610  42.8889699   4.7892168  44.8894503
  43.0610203   4.6798063  45.7379784  43.4259057   5.4346573  44.6525695
  42.9934703   4.8684170  44.9799600  41.1661568  10.7422933  35.2699696
  42.0050467  10.9745866  35.3173457  41.1973337   9.8727244  35.2006731
  41.2943285  10.6479879  35.2664341  41.7914271  11.1623808  39.5713001
  42.3312496  11.0194939  40.2416374  41.1084217  11.5620559  39.9397028
  41.7706425  11.2003479  39.7247423  51.2155156   6.8414809  34.7658026
  51.9712671   7.2746323  34.8046935  51.3217480   6.1919579  35.3392662
  51.3425326   6.8092293  34.8556051  54.2535327  10.6688086  35.5160429
  53.8170559  10.6724828  36.2719400  53.9198242  11.3493585  35.0840006
  54.1397947  10.7700542  35.5641261  48.8264400  12.7096419  46.8403579
  49.6104817  12.8227267  47.2059321  48.6260995  11.8837556  47.0362265
  48.9130426  12.6043138  46.9237965  37.1951416   7.3824099  39.7247423
  36.9289831   6.5663216  39.8838413  37.2089980   7.4277254  38.8542938
  37.1576138   7.2681004  39.6200905  41.1009163   2.1809183  26.3399181
  40.3867340   1.8947363  26.7521614  41.5853132   2.5205809  26.9805569
  41.0668526   2.1890833  26.4954816  41.9450022   0.9202477  42.3714431
  41.2521819   0.4499457  42.6175162  42.5610350   0.6940782  42.9456138
  41.9334552   0.8169609  42.4923583  48.9834794  14.6206521  40.4870035
  48.1850040  14.3806021  40.7443903  49.4320805  14.6720914  41.2337082
  48.9309405  14.5928912  40.6354959  57.3879673   7.3869006  34.4080066
  58.0496107   6.8259674  34.3075974  56.7471085   6.8921037  34.7332757
  57.3908541   7.2305415  34.4412406  48.2756481  10.6839137  26.7160989
  48.6907629  10.3524161  26.0245485  47.4448410  10.4508040  26.5881126
  48.2144490  10.6010393  26.5951837  37.6044830   8.1682878  37.0059167
  37.4220403   8.1429764  36.1531459  38.3394499   8.6381816  37.0448076
  37.6858893   8.2344241  36.8857086  53.6744504   8.4034388  34.1492055
  53.9100093   8.5479587  33.3218905  53.8234067   9.1676796  34.5423568
  53.7310307   8.5373443  34.0855659  40.6690581   4.8867881  43.5141276
  41.3930554   4.8720912  44.0006171  40.7706718   5.5963236  43.0163244
  40.7908790   4.9892584  43.5120063  55.5034961   7.2436054  31.9861659
  55.8343178   7.7763694  31.3801753  56.0768049   7.2974942  32.6423610
  55.6368640   7.3305623  31.9939440  48.0435531   8.3666966  48.3790223
  47.2508511   8.6810478  48.5642843  48.1584458   8.5818434  47.5411008
  47.9430941   8.4450803  48.2828558  50.7166850   5.0900957  32.6685239
  50.8113704   5.8290251  33.1224864  50.0925693   4.6618432  33.1019803
  50.6375880   5.1362278  32.7993386  48.9719323   8.2687170  43.3175520
  49.5458185   7.6314414  43.4724084  48.8934127   8.2691252  42.4485177
  49.0452558   8.1752281  43.2121930  37.5715740   5.0476379  37.1558234
  38.1489243   4.9112830  37.7950479  36.8729802   4.5912163  37.4103818
  37.5536761   4.9598645  37.2880523  50.9689871   6.9349697  25.9022191
  50.8870033   7.0051884  26.7677178  51.6069591   7.4979441  25.7105931
  51.0509708   7.0288668  26.0012140  44.3283042   6.7010435  35.3696717
  44.0702286   5.8682170  35.3428016  44.3831525   6.9268048  34.5289217
  44.2982820   6.6108206  35.2416854  43.3017754   4.2548197  35.8561612
  42.7267346   4.4140366  36.4925573  42.9253431   3.6183606  35.3930062
  43.1620567   4.1846010  35.8816170  46.9691043   2.7271546  40.7153990
  46.5805476   2.3025764  40.0606181  46.3045741   2.9753696  41.2231017
  46.8137971   2.7010268  40.6941858  33.0474573   3.8988272  33.8706052
  33.1334825   3.5220140  34.6519582  33.6750371   3.5248718  33.3926011
  33.1531124   3.7873754  33.9151530  48.0729981   6.9570151  28.9130797
  48.8870620   7.2485044  28.8013569  48.0089122   6.3030013  28.3389090
  48.1832720   6.9035346  28.8119634  54.2939471   9.6396147  43.3260373
  54.0578109   8.8084212  43.2072433  54.9382700   9.5881754  43.9115217
  54.3534142   9.5093835  43.3946266  43.9437889  10.4291668  34.0403109
  44.5811836  10.1903416  34.5854903  44.3692961  10.6328827  33.3056270
  44.1014056  10.4242679  34.0120267  44.5840704   5.6493958  28.3777999
  44.9685857   5.4301665  29.1294544  44.3352325   6.4756904  28.5079075
  44.6042777   5.7392105  28.5079075  55.3175892   9.4240596  39.3888667
  55.0121709  10.1568653  39.7501983  54.5982108   9.0178525  39.1081453
  55.1663234   9.4722329  39.4001804  46.3259361  10.9064091  35.7196895
  46.3998370  10.7439263  36.5738745  47.1428868  11.0954281  35.4757377
  46.4575720  10.9100833  35.8094921  40.0865118  11.2521954  32.7491339
  39.2603236  11.4983691  32.6225618  40.1477109  11.1734035  33.6153397
  39.9739285  11.2766903  32.8580283  44.8663947  13.8698834  30.4510369
  45.1562245  13.4787815  29.7269596  45.5967428  14.0515539  30.8915644
  45.0170831  13.8392648  30.4093176  45.4558692   8.6716580  41.5363499
  44.9570386   9.3832348  41.6148388  46.2658917   8.9917247  41.4981662
  45.5014799   8.8243429  41.5420068  41.7186810   7.9339533  35.7826220
  41.4300058   7.3077004  36.3171948  42.5870158   7.8759821  35.8490901
  41.8047062   7.8327077  35.8717175  41.9219083   9.5734784  31.7068585
  42.6765051   9.9547823  31.9204048  41.3289696  10.0245928  32.1615282
  41.9455797   9.6963612  31.8051464  52.9677737   9.5400021  31.6432190
  53.5335769  10.1993230  31.5590733  52.3205640   9.8849719  32.1148592
  52.9556493   9.6881962  31.7004947  44.3825750   1.5297625  46.8325798
  43.5725526   1.8355404  46.7215640  44.8600437   2.2503207  46.9478382
  44.3329229   1.6812226  46.8332869  43.2417310  10.7443345  37.0808701
  42.7198063  10.8843637  37.7660565  43.6291330   9.9854010  37.2710818
  43.2221011  10.6528869  37.2109777  40.2308494   0.7949154  31.1503655
  39.9433290   0.4250425  30.4135603  40.9178962   1.2644010  30.8887360
  40.2897391   0.8096124  31.0018731  49.4384315  12.4838805  31.0669269
  49.1970991  11.7506665  30.6596334  49.6185648  13.0325662  30.4135603
  49.4291939  12.4561196  30.9099492  44.6683635   7.7747365  32.4790192
  44.4726418   8.3822099  31.8850495  44.8917981   7.0815309  31.9981866
  44.6718276   7.7624890  32.3206273  43.0662165   4.6602102  32.5971060
  43.7884817   4.8243261  32.1374866  42.5870158   5.3811767  32.4910400
  43.1025896   4.7900332  32.5136674  40.7169782   7.0660175  41.7025200
  41.2290879   7.3444428  41.0533960  40.4306125   7.8049469  42.0688013
  40.7504645   7.2162529  41.6615078  54.9013197   6.2033888  35.2628987
  54.8147171   6.3589314  36.1163766  54.4463677   6.8471964  34.8888392
  54.8216454   6.3209643  35.3336094  37.8036688   1.5730367  31.9988936
  37.9052825   2.3756528  32.3269912  38.5992575   1.3717703  31.7012017
  37.9364594   1.6616265  32.0024292  38.6200421   1.6877545  39.7410058
  38.4785912   0.8361486  39.8654566  38.9040984   1.7306206  38.9172264
  38.6408267   1.5677295  39.6377682  52.6687062  10.2327994  37.6741328
  52.5301421  10.9309040  38.1790070  51.8887060  10.0776651  37.3177509
  52.5330289  10.3128161  37.6967602  51.0065147   6.5324370  43.9263709
  51.0013185   5.6604186  43.9306136  51.7126141   6.7312539  43.4533165
  51.1110151   6.4328244  43.8570745  44.7336040   6.2601354  43.2977529
  44.8779416   6.8402562  42.6620639  45.0811689   6.6377650  44.0027384
  44.8063502   6.4022058  43.3076524  46.9055958   5.4591522  41.0802661
  46.1579272   5.6522536  40.6750939  47.0597483   4.6336742  40.8426782
  46.8178385   5.3656633  40.9848067  43.8063795  14.4504126  40.1638556
  43.9553359  13.8907041  39.5111961  44.5863797  14.5296127  40.5471075
  43.9437889  14.3789691  40.1235505  54.1640435   9.5906248  28.4357827
  53.7847243   8.8043386  28.4287116  53.5006680  10.1393105  28.2929471
  54.0098909   9.5551072  28.4138624  46.3317096  14.6218768  41.4423047
  46.2560767  13.9527579  41.9973835  46.2606955  15.3236557  41.9563713
  46.3097703  14.6263676  41.5999895  46.9887343  13.1419767  32.2746653
  47.7537234  12.8729411  31.9529317  46.8865433  12.6569778  32.9916716
  47.0868838  13.0309332  32.3326481  49.5106003  10.1731951  24.2546602
  50.2778988  10.2332076  23.8452454  49.0637312   9.6012392  23.7702921
  49.5579431  10.0968527  24.1224313  50.4083799   8.9786607  36.5399335
  49.7328801   8.7471839  37.0412722  50.4176175   8.3707790  35.9141440
  50.3102303   8.8545532  36.5215487  47.5377943   3.8204436  43.2963388
  47.4737084   4.6814392  43.1683524  47.6775131   3.5036429  42.4958939
  47.5493413   3.9004602  43.1591601  52.4100533  11.8351739  28.7709513
  52.4920371  12.6418725  28.4470964  52.8950276  11.8547698  29.4950286
  52.4937691  11.9572402  28.8296411  46.2197037   6.5136575  37.4379591
  45.7959286   6.7141074  36.7018609  46.0441892   5.6665423  37.5503890
  46.1307917   6.4185357  37.3453281  45.7208730  18.0287088  39.9001048
  46.2104660  17.3297877  39.7176712  45.1492962  17.7310958  40.4877105
  45.7093260  17.8813312  39.9602089  41.5079482   7.0088627  32.8707563
  41.6644101   6.9435429  33.7263555  41.8480075   7.7837179  32.6586243
  41.5812717   7.1137825  32.9662157  48.0458626   6.3846510  31.7400926
  48.5874172   5.8816891  32.2039547  48.3605185   6.3311705  30.9290412
  48.1723023   6.3025931  31.6884738  51.9175734  10.5949158  48.8527839
  52.7310599  10.3234306  49.0132971  51.7570700  10.2956698  48.0488034
  52.0145682  10.5104084  48.7573244  46.2145076  11.7763862  29.0240954
  46.2837896  10.9178400  29.1633955  46.9933531  11.9935743  28.6959979
  46.3397926  11.6816726  28.9958112  50.6052564  14.2001563  33.2377448
  50.2132355  13.8968278  32.5200314  50.7605636  15.0370653  33.0482401
  50.5706153  14.2785400  33.1033945  38.0813743   4.1923577  33.1868330
  38.4612708   4.6108122  32.5228598  37.5069108   4.7737033  33.4937174
  38.0525068   4.3401436  33.1345071  50.7692238  10.7651552  33.1783478
  50.4106893  10.9366195  33.9547511  50.2830949  11.2264758  32.6211477
  50.6450935  10.8590523  33.2108747  45.5580604   6.4450717  25.7183713
  45.8473129   7.2215600  25.9927287  45.6452403   5.9339449  26.4198212
  45.6134860   6.4842636  25.8626210  48.4540491   4.2931951  47.5135236
  48.9240122   4.9174068  47.9003110  48.5002371   3.6248927  48.0728451
  48.5308367   4.2866632  47.6535308  51.9296978  11.6555448  44.1250679
  52.5676698  11.1615643  43.7913135  51.2871069  11.5832848  43.5402906
  51.9291204  11.5714456  43.9893034  51.9851234  12.3475256  40.7656036
  52.7743612  11.9964321  40.8858117  52.1594832  13.1611645  40.5032670
  52.1271516  12.4161113  40.7443904  41.7244545   5.7583982  37.8183825
  40.8832551   5.6587856  38.0262719  41.9334553   6.5279462  38.1698145
  41.6309237   5.8576025  37.9011140  39.2020112   3.3803519  35.6468575
  38.8076809   3.4546531  34.8718685  38.6460229   3.7661465  36.1976937
  39.0622924   3.4485293  35.6136235  45.5361210   3.6865381  37.0681422
  45.2324347   3.1321369  37.6691830  44.8340630   3.8657591  36.5809456
  45.3877419   3.6310163  37.0851128  43.5979561  10.9015102  41.7753520
  43.4899915  10.9117164  42.6415578  43.8075342  11.7269882  41.5858474
  43.6129672  11.0256177  41.8757612  41.6153353   8.1527744  39.2375458
  41.0241286   8.7937242  39.2078473  42.3774376   8.5765361  39.2106757
  41.6401613   8.3103583  39.2290605  57.7343774   7.9833514  40.2352736
  57.7926898   8.4320163  40.9812712  57.1010242   8.3932327  39.7982816
  57.6495069   8.1107248  40.2805284  51.3742869  13.6037056  36.6707482
  51.1762557  14.0927870  35.9763693  50.7530580  13.8078297  37.2491615
  51.2530433  13.7053594  36.6530705  45.4350847   5.3721953  31.0117726
  46.1792892   5.7596229  31.2500676  45.5811543   4.5279378  31.1758214
  45.5661432   5.3052425  31.0711696  38.8001753   2.9418933  42.2795191
  39.6627366   2.8414642  42.1932521  38.4693536   2.3613642  41.7180764
  38.8786950   2.8410559  42.1840597  54.6865454   6.0049802  38.3218426
  54.4463676   5.1656217  38.3260853  55.1657461   6.0849968  39.0459200
  54.7217637   5.8931201  38.4293228  53.2916671   7.1701208  42.2052730
  54.0150870   6.7173734  42.0263750  53.0266633   7.4505874  41.4225058
  53.3597944   7.1452177  42.0631446  42.1603539   1.7661382  38.9405610
  41.5356609   1.7779774  38.3331562  41.8249134   2.2421557  39.5896850
  42.0189031   1.8379899  38.9462178  38.8729215   9.8261842  40.3809374
  38.3429139   9.1354281  40.4304349  39.1454308   9.8172027  39.5522082
  38.8353937   9.7228973  40.2656790  49.9049305  10.4087544  29.1047056
  50.6283504  10.8745657  28.9611630  49.4649896  10.4761154  28.3544653
  49.9464997  10.4871381  28.9731838  49.0735460   7.2685086  40.3547746
  48.4592453   6.7243137  40.6496381  49.5902745   6.7549323  39.8753562
  49.0591123   7.1121495  40.3271974  48.3131757   8.3389356  38.0892044
  47.8859365   7.7139075  37.6557480  48.3056702   8.0564278  38.9151051
  48.2490899   8.2042137  38.1471872  41.4294285   3.3754529  41.1580478
  41.5887771   2.6197854  41.5632200  41.2487178   3.9245469  41.8121216
  41.4259643   3.3448343  41.3143184  34.1525057   6.4989606  37.7377722
  34.0468506   6.4536450  36.8729806  33.4025277   6.8443386  38.0192007
  34.0260660   6.5430514  37.6515052  45.1048402   7.5089669  45.7860617
  44.2544033   7.6461383  45.9218262  45.2676530   6.7753447  46.2308319
  45.0032266   7.4203770  45.8716216  44.3433153   4.4589439  39.9814221
  43.5125082   4.6263257  39.7749470  44.2884670   4.0825390  40.7663107
  44.2122568   4.4279170  40.0662750  42.7169197   2.7345030  30.5104339
  42.8572158   3.2317495  31.2132981  43.2151729   2.0331325  30.6518553
  42.8110277   2.7047009  30.6355918  42.7469419   3.6012141  27.8396916
  43.3814498   4.1972567  27.7746378  42.8295030   3.3015599  28.6542786
  42.8525970   3.6453050  27.9500003  55.7251985   6.1327619  40.7083280
  56.3169825   6.7724870  40.7401478  56.1610979   5.4350656  40.9975347
  55.8770416   6.1245969  40.7564113  47.5545375  10.5544991  41.3341174
  47.0470466  11.1080838  41.7781805  47.2572021  10.6153281  40.5159949
  47.4350260  10.6451302  41.2789631  39.2522407   5.7979982  31.1086462
  39.7614636   6.3944490  31.4897768  39.7256679   5.5305956  30.4262882
  39.3965783   5.8465798  31.0640985  50.1653155  14.4708249  29.2645118
  49.4482465  14.2969111  28.7992355  50.8159892  14.2360821  28.7320604
  50.1555005  14.4104041  29.1174335  46.7987860  15.4869549  38.2398181
  46.5753514  14.7288379  38.6082207  46.3097703  15.5167571  37.5178621
  46.6931309  15.3791774  38.1874922  41.6112939   2.4336241  33.9759642
  40.8924928   2.8500373  34.2432506  41.9825301   2.9990480  33.4251281
  41.5604870   2.5785522  33.9342449  48.8558849   9.6551282  45.7910115
  48.8154704   9.0100959  45.2055271  49.6682167   9.5987899  46.1035527
  48.9702003   9.5510249  45.7507064  48.8131611  14.8660093  36.4458882
  48.4147894  14.9762363  35.6779702  48.1982830  15.0742159  37.0285442
  48.6630500  14.9133661  36.4190182  44.5436558   3.2848218  42.3459872
  44.0315461   2.6769401  42.7044904  44.3716054   4.0004811  42.8133848
  44.4426195   3.3011518  42.4676096  39.3902273   1.7285794  44.9962234
  39.2204863   2.3887168  44.4510441  38.9468223   1.9392355  45.7174723
  39.3001606   1.8571776  45.0223864  56.5473454   9.4412060  29.8301973
  56.9307059  10.1903416  30.0600070  55.7517567   9.6877879  29.5713962
  56.4867236   9.5881753  29.8259546  36.2904337   4.6332659  40.2550724
  35.7431057   3.9633305  40.3731592  37.0796715   4.2662507  40.3194191
  36.3256521   4.4797646  40.2819425  46.1388746   4.2940116  45.7514135
  46.8900073   4.6091793  46.0653689  46.3311322   4.0919287  44.9248057
  46.2780160   4.3107498  45.6757531  45.3588745   2.1131491  27.4062352
  45.7387710   2.1311120  26.6213466  44.6181341   2.5585480  27.2853199
  45.3057583   2.1813266  27.2725920  35.0491307   3.8453467  37.4096747
  34.8713068   3.3930076  38.1351663  34.7610329   4.6479628  37.5935225
  34.9804260   3.8976025  37.5440250  50.7114888   5.1011184  36.6474137
  51.2068553   4.3834179  36.6078158  49.9014663   4.7981982  36.5328624
  50.6658781   4.9508831  36.6247863  46.1573499   8.9508998  28.7971142
  45.3484822   8.6275671  28.7504451  46.6648408   8.2442220  28.7299390
  46.1123166   8.7990314  28.7801436  36.7863777   6.3781191  34.5218506
  35.9209296   6.3666881  34.4101277  36.8862592   6.1911414  35.3689645
  36.6737943   6.3487252  34.6307450  52.7766707   7.8514872  39.3351266
  53.2021778   7.3289294  38.7821691  52.4123626   8.4495709  38.8139889
  52.7853309   7.8625099  39.1760276  49.3645306  11.5649136  35.6652424
  49.8356484  12.2789399  35.8342409  49.7005485  10.9647886  36.2012293
  49.4840421  11.5820600  35.7684799  51.4522291  13.1750449  47.8444496
  51.5619256  12.3859010  48.2001243  51.7813187  13.0856386  47.0418834
  51.5174696  13.0456302  47.7786886  50.0019252  11.3567070  42.4280116
  49.4540198  10.7324954  42.1600181  50.4632281  11.5461342  41.7124196
  49.9886462  11.2926120  42.2830547  39.7533807  10.0952198  37.7427220
  40.3578664  10.0548032  37.1141041  39.5461119  10.9423350  37.7731276
  39.8122704  10.2140200  37.6543336  49.5677579  12.3618143  38.9589457
  50.3875952  12.2181109  39.2205753  49.2871656  12.9864342  39.5005895
  49.6474322  12.4328495  39.0777397  34.9885089   9.0786815  37.6126143
  34.8909367   8.2683087  37.9216200  35.7713959   9.0578609  37.2272411
  35.0901225   8.9553905  37.6013006  66.0391229  20.0182995  31.9232334
  66.0085233  20.8727631  32.0950603  66.6372578  19.7178287  32.4818477
  66.1228387  20.0999491  32.0307136  59.2390914  19.1058646  36.6785264
  58.3828809  19.2667144  36.7294381  59.2858568  18.2350710  36.6990325
  59.1190025  19.0009447  36.6891330  53.6232054  28.6421363  32.4422496
  52.8714953  28.2636902  32.2138541  54.0718065  28.6739797  31.6941306
  53.5781720  28.5906971  32.2979998  62.5484630  25.3745171  46.2845720
  63.2551398  24.8797202  46.4132655  62.7372566  25.8154253  45.5548378
  62.6812536  25.3663522  46.1954766  59.0757013  29.0646733  27.8708043
  58.7408382  29.7423655  27.4352265  59.5883884  28.6752044  27.2824914
  59.1022595  29.1071311  27.7194834  58.6161305  31.0161002  33.8119154
  59.0000684  31.5847900  33.2723930  58.5520446  30.2910512  33.3324970
  58.6634732  30.9936465  33.6613017  62.0842735  21.1650690  39.3216916
  62.6298695  21.8435776  39.3810885  62.0259611  21.0238150  38.4618497
  62.1558649  21.2442691  39.2028976  55.2016810  28.6539756  34.7085268
  55.3027173  27.8440110  35.0182396  54.6058555  28.5596702  34.0784947
  55.1289348  28.5204784  34.6611507  63.8607804  22.5935297  30.1950644
  63.7447329  23.3442983  30.6242782  64.6563690  22.3359250  30.4446731
  63.9612393  22.6670144  30.2954735  50.6971942  16.8445773  37.2321910
  50.0776973  16.2538420  37.0631924  50.5955805  17.4357208  36.5986233
  50.5909617  16.8449855  37.1126899  55.7438129  26.5829320  31.4819986
  56.0653970  27.1234527  30.8781294  56.3910226  26.0126091  31.6142276
  55.8864184  26.5788495  31.4127021  57.7939837  18.5845315  31.5654373
  58.4920002  18.7633442  32.0575836  58.1092170  18.0615654  30.9424762
  57.9435174  18.5339087  31.5456383  50.4241075  20.3898055  39.4765479
  50.2999771  20.9760500  40.1115297  51.0759359  19.8958250  39.7777754
  50.5014724  20.4036859  39.6151408  57.9827773  24.9715760  31.5534164
  58.4221408  24.3632860  31.9988937  57.8332435  24.5923133  30.7819629
  58.0249238  24.8254231  31.5053332  55.4499416  23.5659771  38.7552990
  56.0948418  23.0732215  38.4363938  55.6901193  23.7084558  39.5819068
  55.5810001  23.5137214  38.8302523  57.9885507  26.4114677  38.4059882
  58.2708750  25.6166083  38.1846638  58.7171667  26.8895265  38.4264943
  58.1375071  26.3649274  38.3762897  55.9666701  13.9537711  35.6475647
  55.6370031  14.4048855  34.9779346  55.2911703  13.8753875  36.1948654
  55.8177137  14.0088846  35.6298871  61.5837109  23.3242941  28.5064933
  61.4988404  24.1803908  28.6514502  62.0721492  23.0487265  29.1747093
  61.6426006  23.4100262  28.6267015  63.1743109   9.9423234  33.8925258
  62.8596550  10.6326713  34.3245680  62.6570050   9.8868016  33.1910759
  63.0507579  10.0358123  33.8522207  62.5155542  19.9427735  30.0062669
  61.9867014  20.1587369  30.6659975  63.0380562  20.6363874  29.9263638
  62.5143995  20.0770872  30.0918268  67.9703595  25.5174040  35.3795713
  67.1401298  25.7284683  35.5429130  67.9212848  24.6911094  35.1037997
  67.8410331  25.4263646  35.3633078  54.4055150  23.8390952  28.8070136
  53.8212365  24.3440983  29.2136000  54.0025245  23.6133339  28.0666728
  54.2594454  23.8799200  28.7575162  56.0313333  28.3477894  38.2143622
  55.5140274  27.9885309  37.6104931  56.7287724  27.8240068  38.2249689
  56.0578914  28.2175582  38.1273881  59.6876925  28.7972708  44.1759796
  59.7760271  28.6098848  45.0238006  60.1166637  28.1510137  43.7764642
  59.7639027  28.6735715  44.2431547  57.2547385  28.0803868  43.1577458
  56.6918219  27.6676478  43.6817119  58.0168408  28.0056773  43.5770601
  57.2841833  28.0081268  43.2970458  58.8632365  20.0856604  27.2839057
  59.1028368  20.2934588  26.4714400  59.1848206  19.2814113  27.3928002
  58.9469522  19.9970705  27.1799610  54.1722655  12.0150000  31.1298595
  54.9268623  12.3828317  30.8915645  53.9950189  12.3889554  31.8977775
  54.2577133  12.1248188  31.2083484  67.4657554  18.1644440  39.1746134
  66.6285975  18.2346627  39.4093729  67.4345784  18.1668935  38.3020437
  67.3375836  18.1754667  39.0805682  53.8622283  20.3077476  44.8894503
  54.0342786  20.1983370  45.7379784  54.3991640  20.9531881  44.6525695
  53.9667287  20.3869478  44.9799600  52.5279719  14.4220319  27.8276708
  52.3455293  14.6392199  27.0017701  53.3905332  14.5359331  27.8835322
  52.6284309  14.4710217  27.7131195  52.7646854  26.6809116  39.5713001
  53.3045079  26.5380247  40.2416374  52.0816801  27.0805867  39.9397028
  52.7439008  26.7188787  39.7247423  58.2079439  11.4246729  30.8625732
  58.9365599  11.2462684  30.4163888  58.2974332  12.2664809  31.0732910
  58.3286101  11.5230608  30.8279249  62.1887739  22.3600117  34.7658026
  62.9445254  22.7931631  34.8046935  62.2950064  21.7104886  35.3392662
  62.3157910  22.3277601  34.8556051  65.2267910  26.1873394  35.5160429
  64.7903142  26.1910136  36.2719400  64.8930826  26.8678893  35.0840006
  65.1130530  26.2885850  35.5641261  59.7996984  28.2281727  46.8403579
  60.5837401  28.3412575  47.2059321  59.5993579  27.4022864  47.0362265
  59.8863009  28.1228446  46.9237965  65.1465393  13.2287222  37.7589857
  65.7891302  13.2985326  38.3451772  65.3988414  12.5616445  37.2569399
  65.2787525  13.1413570  37.7717136  52.0741746  17.6994491  26.3399181
  51.3599924  17.4132671  26.7521614  52.5585715  18.0391117  26.9805569
  52.0401110  17.7076141  26.4954816  52.9182606  16.4387785  42.3714431
  52.2254403  15.9684765  42.6175162  53.5342933  16.2126090  42.9456138
  52.9067136  16.3354917  42.4923583  59.9567377  30.1391829  40.4870035
  59.1582623  29.8991329  40.7443903  60.4053389  30.1906222  41.2337082
  59.9041989  30.1114220  40.6354959  68.3612257  22.9054314  34.4080066
  69.0228691  22.3444982  34.3075974  67.7203669  22.4106345  34.7332757
  68.3641124  22.7490723  34.4412406  59.2489064  26.2024445  26.7160989
  59.6640213  25.8709469  26.0245485  58.4180994  25.9693348  26.5881126
  59.1877073  26.1195701  26.5951837  64.6477087  23.9219696  34.1492055
  64.8832677  24.0664895  33.3218905  64.7966651  24.6862104  34.5423568
  64.7042891  24.0558751  34.0855659  51.6423165  20.4053189  43.5141276
  52.3663137  20.3906220  44.0006171  51.7439301  21.1148544  43.0163244
  51.7641374  20.5077892  43.5120063  66.4767544  22.7621362  31.9861659
  66.8075761  23.2949002  31.3801753  67.0500632  22.8160250  32.6423610
  66.6101223  22.8490931  31.9939440  59.0168114  23.8852274  48.3790223
  58.2241095  24.1995786  48.5642843  59.1317041  24.1003742  47.5411008
  58.9163525  23.9636110  48.2828558  61.6899433  20.6086265  32.6685239
  61.7846288  21.3475559  33.1224864  61.0658277  20.1803740  33.1019803
  61.6108463  20.6547585  32.7993386  59.9451907  23.7872478  43.3175520
  60.5190769  23.1499722  43.4724084  59.8666711  23.7876560  42.4485177
  60.0185142  23.6937589  43.2121930  48.5448323  20.5661687  37.1558234
  49.1221826  20.4298138  37.7950479  47.8462385  20.1097471  37.4103818
  48.5269345  20.4783953  37.2880523  61.9422455  22.4535005  25.9022191
  61.8602617  22.5237192  26.7677178  62.5802175  23.0164749  25.7105931
  62.0242292  22.5473976  26.0012140  55.3015626  22.2195743  35.3696717
  55.0434870  21.3867477  35.3428016  55.3564109  22.4453356  34.5289217
  55.2715404  22.1293514  35.2416854  60.3816676  14.3224193  35.4700810
  59.6773003  13.8333379  35.6284729  60.4301650  14.3346668  34.5989254
  60.2846727  14.2513841  35.3640149  54.2750338  19.7733505  35.8561612
  53.6999929  19.9325673  36.4925573  53.8986014  19.1368914  35.3930062
  54.1353150  19.7031318  35.8816170  57.9423626  18.2456854  40.7153990
  57.5538059  17.8211072  40.0606181  57.2778325  18.4939004  41.2231017
  57.7870554  18.2195575  40.6941858  67.5846896  18.0031859  33.4901820
  67.3283460  17.1911801  33.2999703  68.4276210  18.0109426  33.2632008
  67.6712921  17.8843857  33.4286637  61.7649988  11.9431483  38.2277974
  62.1460500  11.2609654  38.6145849  60.9613272  11.6541085  38.0453639
  61.7026450  11.7998532  38.2582030  59.0462565  22.4755459  28.9130797
  59.8603204  22.7670352  28.8013569  58.9821706  21.8215321  28.3389090
  59.1565304  22.4220654  28.8119634  65.2672055  25.1581455  43.3260373
  65.0310692  24.3269520  43.2072433  65.9115284  25.1067062  43.9115217
  65.3266726  25.0279143  43.3946266  54.9170473  25.9476976  34.0403109
  55.5544420  25.7088724  34.5854903  55.3425545  26.1514135  33.3056270
  55.0746639  25.9427987  34.0120267  55.5573288  21.1679266  28.3777999
  55.9418441  20.9486973  29.1294544  55.3084908  21.9942212  28.5079075
  55.5775361  21.2577412  28.5079075  55.7241828  14.4485681  48.0940583
  55.4095269  15.2185244  47.8310146  55.4031761  13.8855937  47.5092810
  55.6300748  14.4795950  47.9681933  66.2908476  24.9425904  39.3888667
  65.9854293  25.6753961  39.7501983  65.5714691  24.5363833  39.1081453
  66.1395818  24.9907637  39.4001804  57.2991945  26.4249399  35.7196895
  57.3730953  26.2624571  36.5738745  58.1161451  26.6139589  35.4757377
  57.4308304  26.4286141  35.8094921  71.9910268  21.5818905  38.7157012
  71.9234768  21.6014864  37.8459598  71.9765930  22.4249232  38.9412682
  71.9789024  21.7092639  38.6209488  51.0597702  26.7707262  32.7491339
  50.2335819  27.0168999  32.6225618  51.1209693  26.6919343  33.6153397
  50.9471869  26.7952211  32.8580283  53.2773725  12.8376203  33.7086779
  52.4096151  12.9098802  33.7744388  53.5648930  13.6398282  33.8974754
  53.1913473  12.9670350  33.7461546  62.4006614  12.9854062  42.0398101
  63.1460206  12.7963873  41.6261526  61.9843919  13.5112300  41.4811957
  62.4491588  13.0356208  41.8962674  55.8396531  29.3884142  30.4510369
  56.1294829  28.9973123  29.7269596  56.5700012  29.5700847  30.8915644
  55.9903415  29.3577956  30.4093176  69.7768885  20.3563291  36.9903606
  70.3276807  19.7231360  37.2300698  69.7613000  20.8878684  37.6819110
  69.8554081  20.3412239  37.1282464  56.4291276  24.1901888  41.5363499
  55.9302970  24.9017656  41.6148388  57.2391500  24.5102555  41.4981662
  56.4747383  24.3428737  41.5420068  53.7802446  31.3651525  33.5170519
  53.5602742  31.0748879  34.3097186  53.5596968  30.7066480  32.9888431
  53.7150040  31.2251233  33.5559427  52.6919393  23.4524841  35.7826220
  52.4032642  22.8262312  36.3171948  53.5602742  23.3945128  35.8490901
  52.7779645  23.3512385  35.8717175  63.4797291  18.5959624  36.1008202
  63.1362057  17.8749960  36.4515452  63.5790334  18.3873476  35.2586560
  63.4439334  18.4583828  36.0279882  55.9470402  32.7380914  32.3001211
  56.5994460  32.2057357  32.5292237  55.2496011  32.3849567  32.6869085
  55.9401120  32.6070437  32.3913379  52.8951667  25.0920092  31.7068585
  53.6497635  25.4733131  31.9204048  52.3022279  25.5431236  32.1615282
  52.9188380  25.2148919  31.8051464  63.9410320  25.0585328  31.6432190
  64.5068353  25.7178538  31.5590733  63.2938224  25.4035027  32.1148592
  63.9289077  25.2067270  31.7004947  55.3558334  17.0482932  46.8325798
  54.5458110  17.3540712  46.7215640  55.8333021  17.7688515  46.9478382
  55.3061813  17.1997534  46.8332869  54.2149893  26.2628653  37.0808701
  53.6930647  26.4028945  37.7660565  54.6023914  25.5039318  37.2710818
  54.1953594  26.1714177  37.2109777  51.2041077  16.3134462  31.1503655
  50.9165873  15.9435733  30.4135603  51.8911546  16.7829317  30.8887360
  51.2629975  16.3281432  31.0018731  60.4116898  28.0024113  31.0669269
  60.1703574  27.2691973  30.6596334  60.5918231  28.5510970  30.4135603
  60.4024522  27.9746504  30.9099492  55.6416219  23.2932672  32.4790192
  55.4459002  23.9007407  31.8850495  55.8650565  22.6000616  31.9981866
  55.6450860  23.2810198  32.3206273  54.0394749  20.1787410  32.5971060
  54.7617401  20.3428568  32.1374866  53.5602742  20.8997075  32.4910400
  54.0758480  20.3085640  32.5136674  61.9988257  16.5151209  37.9767745
  61.1599357  16.5412488  37.7406008  62.0692624  17.1621945  38.5573092
  61.8856650  16.6147335  38.0276862  51.6902366  22.5845483  41.7025200
  52.2023463  22.8629736  41.0533960  51.4038708  23.3234777  42.0688013
  51.7237229  22.7347836  41.6615078  60.4457535  13.4136586  32.7095361
  61.1483888  13.2144334  32.2315319  60.1801724  12.6412529  33.0164204
  60.5104167  13.2699552  32.6840803  65.8745780  21.7219196  35.2628987
  65.7879755  21.8774622  36.1163766  65.4196260  22.3657271  34.8888392
  65.7949037  21.8394951  35.3336094  48.7769272  17.0915675  31.9988936
  48.8785409  17.8941836  32.3269912  49.5725159  16.8903011  31.7012017
  48.9097178  17.1801573  32.0024292  55.2086091  14.6771871  41.7626242
  55.0169288  14.6927006  42.6125665  56.0584687  14.8735546  41.7392896
  55.3061813  14.7086223  41.8849536  49.5933004  17.2062853  39.7410058
  49.4518496  16.3546794  39.8654566  49.8773568  17.2491513  38.9172264
  49.6140850  17.0862603  39.6377682  59.7471597  19.0429943  33.8854546
  59.5006311  18.9625694  34.7191335  60.0756720  18.2583411  33.6917074
  59.7592840  18.9156208  33.9802069  63.6419645  25.7513302  37.6741328
  63.5034005  26.4494348  38.1790070  62.8619643  25.5961959  37.3177509
  63.5062872  25.8313469  37.6967602  61.9797730  22.0509678  43.9263709
  61.9745769  21.1789494  43.9306136  62.6858724  22.2497847  43.4533165
  62.0842734  21.9513552  43.8570745  55.7068624  21.7786662  43.2977529
  55.8512000  22.3587870  42.6620639  56.0544272  22.1562958  44.0027384
  55.7796085  21.9207366  43.3076524  57.8788541  20.9776830  41.0802661
  57.1311855  21.1707844  40.6750939  58.0330066  20.1522050  40.8426782
  57.7910969  20.8841941  40.9848067  54.7796379  29.9689433  40.1638556
  54.9285943  29.4092349  39.5111961  55.5596381  30.0481435  40.5471075
  54.9170472  29.8974999  40.1235505  65.1373018  25.1091556  28.4357827
  64.7579827  24.3228694  28.4287116  64.4739264  25.6578413  28.2929471
  64.9831493  25.0736380  28.4138624  57.3049679  30.1404076  41.4423047
  57.2293351  29.4712887  41.9973835  57.2339539  30.8421864  41.9563713
  57.2830286  30.1448984  41.5999895  58.1190318  14.8727381  41.9698065
  58.5762932  15.6051355  42.0970857  58.1946647  14.4493846  42.7285321
  58.1981288  14.9184619  42.0999141  50.3623309  15.1193200  43.0587508
  49.8265499  14.5073559  43.3748276  50.4241074  15.6941336  43.7121175
  50.2918942  15.1140128  43.2022935  57.9619926  28.6605075  32.2746653
  58.7269817  28.3914719  31.9529317  57.8598016  28.1755086  32.9916716
  58.0601422  28.5494640  32.3326481  55.9972696  16.8629485  38.8139889
  55.2068771  16.6820945  39.1357225  56.3933319  16.0856437  38.7970183
  55.9389572  16.7216946  38.8592437  60.4838587  25.6917259  24.2546602
  61.2511572  25.7517384  23.8452454  60.0369896  25.1197700  23.7702921
  60.5312014  25.6153835  24.1224313  61.3816382  24.4971915  36.5399335
  60.7061384  24.2657147  37.0412722  61.3908759  23.8893098  35.9141440
  61.2834887  24.3730840  36.5215487  58.5110526  19.3389744  43.2963388
  58.4469668  20.1999700  43.1683524  58.6507714  19.0221737  42.4958939
  58.5225996  19.4189910  43.1591601  63.3833117  27.3537047  28.7709513
  63.4652954  28.1604033  28.4470964  63.8682859  27.3733006  29.4950286
  63.4670275  27.4757710  28.8296411  57.1929620  22.0321883  37.4379591
  56.7691869  22.2326382  36.7018609  57.0174475  21.1850731  37.5503890
  57.1040501  21.9370665  37.3453281  52.4812065  22.5273935  32.8707563
  52.6376684  22.4620737  33.7263555  52.8212658  23.3022487  32.6586243
  52.5545300  22.6323133  32.9662157  59.0191210  21.9031818  31.7400926
  59.5606755  21.4002199  32.2039547  59.3337769  21.8497013  30.9290412
  59.1455607  21.8211239  31.6884738  62.8908317  26.1134465  48.8527839
  63.7043183  25.8419614  49.0132971  62.7303284  25.8142005  48.0488034
  62.9878266  26.0289391  48.7573244  57.1877660  27.2949170  29.0240954
  57.2570480  26.4363708  29.1633955  57.9666115  27.5121051  28.6959979
  57.3130510  27.2002034  28.9958112  60.1680479  16.7968123  41.7923227
  60.3822449  16.1579037  41.2386581  59.5514378  17.2413946  41.3631089
  60.1085808  16.7678266  41.6473658  61.5785147  29.7186871  33.2377448
  61.1864939  29.4153586  32.5200314  61.7338219  30.5555961  33.0482401
  61.5438737  29.7970708  33.1033945  49.0546327  19.7108885  33.1868330
  49.4345292  20.1293430  32.5228598  48.4801692  20.2922341  33.4937174
  49.0257652  19.8586744  33.1345071  62.3319567  18.4057188  42.7306534
  61.5196249  18.0983078  42.8119707  62.7909502  17.9256188  43.2949246
  62.2799952  18.2893680  42.8261128  61.7424822  26.2836860  33.1783478
  61.3839477  26.4551503  33.9547511  61.2563533  26.7450065  32.6211477
  61.6183519  26.3775831  33.2108747  59.5595208   9.9068058  36.7810570
  58.6888766   9.8806779  36.7343879  59.8135549   9.7345250  35.9636415
  59.4688768   9.8778202  36.6530706  56.5313187  21.9636025  25.7183713
  56.8205712  22.7400908  25.9927287  56.6184986  21.4524757  26.4198212
  56.5867444  22.0027944  25.8626210  59.4273075  19.8117259  47.5135236
  59.8972706  20.4359376  47.9003110  59.4734955  19.1434235  48.0728451
  59.5040951  19.8051940  47.6535308  56.5844348  11.9174287  38.2384040
  56.0682837  11.2254478  38.3635619  56.0238277  12.5845064  38.1846639
  56.4250862  11.9137544  38.2490106  58.6536582  12.4567247  40.0676893
  58.2668335  12.4816278  40.8490422  58.1669519  11.8908925  39.6151409
  58.5249091  12.3762998  40.1164796  62.9029561  27.1740756  44.1250679
  63.5409282  26.6800951  43.7913135  62.2603653  27.1018156  43.5402906
  62.9023788  27.0899764  43.9893034  64.6286561  19.0229902  38.6916595
  64.2014169  18.9356250  37.9364694  63.9912614  19.1307677  39.2771439
  64.4716169  19.0262562  38.6662036  58.3193724   9.3434232  42.3587152
  58.9486842   9.8794532  42.0808223  58.4879586   9.2511591  43.2100718
  58.4371518   9.4095595  42.4435681  58.1207638  14.1305427  44.6313564
  58.9481068  13.8590576  44.6872178  58.1415484  14.9266269  44.9877382
  58.2460489  14.2085181  44.6928747  62.9583818  27.8660564  40.7656036
  63.7476196  27.5149629  40.8858117  63.1327416  28.6796952  40.5032670
  63.1004100  27.9346421  40.7443904  52.6977128  21.2769290  37.8183825
  51.8565135  21.1773164  38.0262719  52.9067136  22.0464770  38.1698145
  52.6041821  21.3761333  37.9011140  50.1752695  18.8988827  35.6468575
  49.7809393  18.9731839  34.8718685  49.6192812  19.2846773  36.1976937
  50.0355508  18.9670601  35.6136235  61.8117642  11.8770121  35.3272454
  62.0167235  11.8092429  36.1729451  61.4844066  12.6828942  35.2593632
  61.7932890  11.9856061  35.4432109  56.5093793  19.2050689  37.0681422
  56.2056931  18.6506677  37.6691830  55.8073214  19.3842899  36.5809456
  56.3610003  19.1495471  37.0851128  55.5659890  16.5151209  31.6326124
  55.8419625  15.7970121  31.2203692  56.1658560  17.1136129  31.4247230
  55.6953155  16.4971579  31.5406885  54.5712144  26.4200410  41.7753520
  54.4632499  26.4302472  42.6415578  54.7807926  27.2455190  41.5858474
  54.5862255  26.5441484  41.8757612  65.0651330  12.4301885  34.8075220
  64.4525643  12.9172287  35.1928952  65.1615505  11.7545376  35.3512871
  64.9889227  12.4020194  34.9454078  59.0670411  14.1864726  29.9072719
  59.5214157  14.3575287  30.6320564  59.5410456  13.5732837  29.5070495
  59.2038731  14.1215611  29.9546481  52.5885936  23.6713052  39.2375458
  51.9973869  24.3122550  39.2078473  53.3506960  24.0950669  39.2106757
  52.6134197  23.8288890  39.2290605  52.9846559  14.8315050  39.9043475
  53.4448041  14.9053979  40.6418599  53.0302666  15.6296304  39.5543297
  53.0597114  14.9609197  39.9616232  54.6329909  15.4981745  44.4715502
  54.2415474  14.8515092  44.9071280  54.8015771  16.0893180  45.0909758
  54.6000819  15.4896013  44.6278208  68.7076358  23.5018822  40.2352736
  68.7659481  23.9505471  40.9812712  68.0742825  23.9117635  39.7982816
  68.6227653  23.6292556  40.2805284  62.3475452  29.1222364  36.6707482
  62.1495141  29.6113178  35.9763693  61.7263163  29.3263605  37.2491615
  62.2263017  29.2238902  36.6530705  56.4083431  20.8907260  31.0117726
  57.1525476  21.2781537  31.2500676  56.5544127  20.0464686  31.1758214
  56.5394016  20.8237733  31.0711696  58.3263006  12.6857519  36.0449588
  57.4799051  12.8580327  35.9190938  58.3234139  11.8806863  36.3815416
  58.2010156  12.5918548  36.0760715  59.3961307  16.4632734  36.9111646
  58.9221261  15.9374496  37.4216957  59.7679442  15.9162207  36.3426507
  59.3811196  16.3048730  36.9026793  49.7734337  18.4604240  42.2795191
  50.6359950  18.3599950  42.1932521  49.4426120  17.8798950  41.7180764
  49.8519533  18.3595867  42.1840597  65.6598037  21.5235109  38.3218426
  65.4196260  20.6841525  38.3260853  66.1390044  21.6035276  39.0459200
  65.6950221  21.4116509  38.4293228  61.3244806  17.3569288  29.9737399
  60.7967825  17.4398032  29.2843108  61.7840514  18.0987160  29.9702044
  61.3146657  17.4789951  29.8712095  67.6603224  18.3036567  36.2747685
  67.4212994  18.2632401  35.4368470  67.8237125  19.1507719  36.4013406
  67.6493528  18.4228652  36.1701167  64.2649254  22.6886516  42.2052730
  64.9883453  22.2359042  42.0263750  63.9999217  22.9691182  41.4225058
  64.3330528  22.6637484  42.0631446  53.1336123  17.2846690  38.9405610
  52.5089193  17.2965081  38.3331562  52.7981718  17.7606865  39.5896850
  52.9921615  17.3565206  38.9462178  53.3177871  15.6271808  24.9978295
  52.9690676  16.2791533  25.4609844  52.8374317  15.6128921  24.2702166
  53.1948115  15.7214862  24.9589386  60.8781889  25.9272852  29.1047056
  61.6016088  26.3930965  28.9611630  60.4382480  25.9946462  28.3544653
  60.9197581  26.0056689  28.9731838  60.0468044  22.7870394  40.3547746
  59.4325037  22.2428444  40.6496381  60.5635329  22.2734631  39.8753562
  60.0323706  22.6306803  40.3271974  59.2864341  23.8574664  38.0892044
  58.8591949  23.2324383  37.6557480  59.2789285  23.5749586  38.9151051
  59.2223482  23.7227445  38.1471872  52.4026868  18.8939837  41.1580478
  52.5620355  18.1383161  41.5632200  52.2219762  19.4430777  41.8121216
  52.3992227  18.8633651  41.3143184  60.3447171  11.0601073  41.7131268
  59.8487732  11.2564747  41.0222834  61.1016233  11.4593741  41.5420069
  60.3833996  11.1478807  41.5851404  57.6150051  14.7343419  38.3034578
  57.6392538  14.2003531  37.6147358  57.8661524  14.2260728  38.9660169
  57.6559969  14.5804323  38.2999223  53.8951373  13.4614237  37.6840322
  53.9349745  13.9623444  38.3975030  53.0701038  13.5524631  37.4146246
  53.7790899  13.5496053  37.7490861  56.0780986  23.0274977  45.7860617
  55.2276616  23.1646691  45.9218262  56.2409114  22.2938755  46.2308319
  55.9764849  22.9389078  45.8716216  55.3165736  19.9774747  39.9814221
  54.4857666  20.1448565  39.7749470  55.2617253  19.6010698  40.7663107
  55.1855151  19.9464478  40.0662750  53.1249520  13.4683640  45.6170632
  53.7502223  12.9245773  45.8900064  52.6699999  12.9878557  45.0478423
  53.1497780  13.3173121  45.5732226  53.6901780  18.2530338  30.5104339
  53.8304741  18.7502803  31.2132981  54.1884313  17.5516633  30.6518553
  53.7842861  18.2232317  30.6355918  53.7202003  19.1197449  27.8396916
  54.3547082  19.7157874  27.7746378  53.8027613  18.8200907  28.6542786
  53.8258553  19.1638358  27.9500003  66.6984568  21.6512927  40.7083280
  67.2902409  22.2910177  40.7401478  67.1343563  20.9535964  40.9975347
  66.8503000  21.6431277  40.7564113  55.2980985  15.0511425  27.8142358
  55.6196826  14.5714507  27.1601620  55.5607929  15.8611071  27.6233170
  55.3847011  15.1001323  27.6897850  58.5277958  26.0730299  41.3341174
  58.0203049  26.6266146  41.7781805  58.2304604  26.1338589  40.5159949
  58.4082843  26.1636610  41.2789631  60.6940140  14.4383619  40.1765837
  61.1195212  13.9856145  39.5649363  60.0797133  13.8843689  40.4530625
  60.6668786  14.2897595  40.1270862  50.2254990  21.3165290  31.1086462
  50.7347220  21.9129798  31.4897768  50.6989263  21.0491264  30.4262882
  50.3698366  21.3651106  31.0640985  61.1385738  29.9893557  29.2645118
  60.4215048  29.8154419  28.7992355  61.7892476  29.7546129  28.7320604
  61.1287589  29.9289349  29.1174335  59.1334363  10.9098719  33.5856414
  58.4902681  10.7596365  34.1541553  58.7933770  10.6641064  32.8205519
  58.9879441  10.8510841  33.5559429  63.7233710  18.8658145  33.0086423
  63.0524900  19.4087848  32.8799488  64.4173460  19.3353001  32.7668117
  63.7262577  19.0156417  32.9541950  57.7720443  31.0054857  38.2398181
  57.5486098  30.2473687  38.6082207  57.2830287  31.0352879  37.5178621
  57.6663892  30.8977082  38.1874922  63.8861837  15.3214029  35.9176796
  64.2389447  14.8943752  36.5922595  63.0276639  15.2364873  36.0477872
  63.8111282  15.2458770  36.0371806  52.5845522  17.9521549  33.9759642
  51.8657511  18.3685681  34.2432506  52.9557884  18.5175788  33.4251281
  52.5337454  18.0970830  33.9342449  61.8845103  18.5849398  39.8661638
  61.8643030  18.4032693  40.7196417  61.9324304  19.4561416  39.8421222
  61.8879744  18.6865936  39.9884933  59.8291433  25.1736590  45.7910115
  59.7887288  24.5286267  45.2055271  60.6414751  25.1173207  46.1035527
  59.9434586  25.0695556  45.7507064  56.4198900  31.2255316  35.6935266
  56.0059299  30.5629446  35.3039107  57.1046275  31.3733174  35.1730960
  56.4597272  31.1495974  35.5591763  59.7864194  30.3845401  36.4458882
  59.3880478  30.4947671  35.6779702  59.1715414  30.5927467  37.0285442
  59.6363084  30.4318969  36.4190182  58.3592096  16.9919549  29.3133022
  57.7656936  17.3136545  28.7617589  58.3967374  16.1460644  29.1054128
  58.2766486  16.9143877  29.2015793  65.3185897  10.4432441  36.8461108
  64.8116762   9.7361580  36.7782286  66.1153331  10.1125630  36.9762185
  65.3613136  10.2905592  36.8560103  61.2349913  16.9499053  32.7434772
  61.0063606  16.9731755  31.9013130  61.4947989  16.1256520  32.8629783
  61.2396101  16.8315133  32.6359970  55.5169142  18.8033526  42.3459872
  55.0048045  18.1954709  42.7044904  55.3448638  19.5190119  42.8133848
  55.4158779  18.8196825  42.4676096  50.3634856  17.2471101  44.9962234
  50.1937446  17.9072476  44.4510441  49.9200806  17.4577663  45.7174723
  50.2734190  17.3757084  45.0223864  54.2894676  15.4875599  34.0388968
  54.7652042  15.8492679  33.4039149  53.7883275  16.1432067  34.3189111
  54.2860035  15.6369788  33.9865709  67.5206037  24.9597368  29.8301973
  67.9039643  25.7088724  30.0600070  66.7250150  25.2063187  29.5713962
  67.4599819  25.1067061  29.8259546  59.3938212  16.7257771  44.7862128
  59.9509642  16.4971580  44.1540593  59.0699277  17.4863436  44.5097340
  59.4284622  16.8041608  44.6518625  47.2636921  20.1517967  40.2550724
  46.7163640  19.4818613  40.3731592  48.0529299  19.7847815  40.3194191
  47.2989104  19.9982953  40.2819425  57.1121329  19.8125424  45.7514135
  57.8632656  20.1277101  46.0653689  57.3043906  19.6104595  44.9248057
  57.2512743  19.8292806  45.6757531  56.3321329  17.6316799  27.4062352
  56.7120294  17.6496428  26.6213466  55.5913925  18.0770788  27.2853199
  56.2790166  17.6998574  27.2725920  63.9606619  15.9398990  32.9937930
  63.9600846  15.7847647  33.8522207  63.7562799  16.7861977  32.9379316
  63.9306397  16.0419611  33.1125870  61.6847471  20.6196492  36.6474137
  62.1801137  19.9019487  36.6078158  60.8747247  20.3167290  36.5328624
  61.6391365  20.4694138  36.6247863  57.1306083  24.4694305  28.7971142
  56.3217406  24.1460979  28.7504451  57.6380992  23.7627528  28.7299390
  57.0855750  24.3175622  28.7801436  63.7499290  23.3700180  39.3351266
  64.1754362  22.8474602  38.7821691  63.3856210  23.9681017  38.8139889
  63.7585893  23.3810407  39.1760276  60.3377890  27.0834444  35.6652424
  60.8089068  27.7974707  35.8342409  60.6738068  26.4833194  36.2012293
  60.4573005  27.1005908  35.7684799  62.4254874  28.6935757  47.8444496
  62.5351840  27.9044318  48.2001243  62.7545771  28.6041694  47.0418834
  62.4907280  28.5641610  47.7786886  57.2547385  11.8561915  42.6210518
  57.3875290  11.0592908  42.9491494  57.6392537  12.3828318  43.2008794
  57.3303713  11.8161831  42.7554021  60.9751836  26.8752378  42.4280116
  60.4272782  26.2510262  42.1600181  61.4364865  27.0646650  41.7124196
  60.9619045  26.8111428  42.2830547  60.3279740   8.7792241  39.2191612
  59.5225703   8.6689970  39.5359450  60.1986475   8.8804696  38.3621477
  60.1899873   8.7775911  39.1399652  63.7845700  14.9437733  39.8131308
  63.2008689  15.4446939  39.4008876  64.1049994  14.4367289  39.1795632
  63.7458876  14.9429568  39.6589816  56.3240499  13.8578327  30.0889983
  57.1456194  14.0276640  29.8471678  55.8610150  14.0125588  29.3656281
  56.3771662  13.9060060  29.9461628  54.9135831  11.8521090  40.8688412
  55.4580244  11.5112216  41.4592754  54.9672767  12.7106551  41.0109697
  55.0024951  11.9276349  40.9770285  60.5410162  27.8803451  38.9589457
  61.3608536  27.7366417  39.2205753  60.2604240  28.5049650  39.5005895
  60.6206906  27.9513803  39.0777397  70.2123497  34.6243954  36.6785264
  69.3561393  34.7852452  36.7294381  70.2591151  33.7536017  36.6990325
  70.0922609  34.5194755  36.6891330  64.5964637  44.1606671  32.4422496
  63.8447537  43.7822210  32.2138541  65.0450649  44.1925105  31.6941306
  64.5514304  44.1092279  32.2979998  70.0489597  44.5832041  27.8708043
  69.7140966  45.2608962  27.4352265  70.5616467  44.1937352  27.2824914
  70.0755178  44.6256619  27.7194834  69.5893888  46.5346310  33.8119154
  69.9733268  47.1033208  33.2723930  69.5253030  45.8095820  33.3324970
  69.6367316  46.5121773  33.6613017  66.1749393  44.1725064  34.7085268
  66.2759756  43.3625417  35.0182396  65.5791139  44.0782010  34.0784947
  66.1021932  44.0390092  34.6611507  66.0150133  49.0902653  36.1100124
  66.6587588  49.5315817  36.4996283  66.3406388  48.2856079  36.0230383
  66.1581962  49.0367847  36.1545602  61.6704525  32.3631081  37.2321910
  61.0509557  31.7723728  37.0631924  61.5688389  32.9542516  36.5986233
  61.5642201  32.3635163  37.1126899  66.7170713  42.1014628  31.4819986
  67.0386554  42.6419835  30.8781294  67.3642809  41.5311399  31.6142276
  66.8596768  42.0973803  31.4127021  68.7672421  34.1030623  31.5654373
  69.4652585  34.2818750  32.0575836  69.0824753  33.5800962  30.9424762
  68.9167758  34.0524395  31.5456383  61.3973658  35.9083362  39.4765479
  61.2732355  36.4945808  40.1115297  62.0491943  35.4143558  39.7777754
  61.4747307  35.9222167  39.6151408  68.9560356  40.4901068  31.5534164
  69.3953992  39.8818168  31.9988937  68.8065019  40.1108441  30.7819629
  68.9981822  40.3439539  31.5053332  66.4231999  39.0845079  38.7552990
  67.0681002  38.5917523  38.4363938  66.6633776  39.2269866  39.5819068
  66.5542584  39.0322522  38.8302523  68.9618090  41.9299985  38.4059882
  69.2441333  41.1351391  38.1846638  69.6904251  42.4080573  38.4264943
  69.1107654  41.8834582  38.3762897  66.9399284  29.4723019  35.6475647
  66.6102614  29.9234163  34.9779346  66.2644286  29.3939183  36.1948654
  66.7909721  29.5274154  35.6298871  65.3787734  39.3576260  28.8070136
  64.7944949  39.8626291  29.2136000  64.9757829  39.1318647  28.0666728
  65.2327038  39.3984508  28.7575162  60.9331762  45.0731021  35.6093808
  60.4499341  45.7981511  35.5853392  61.7455081  45.3707151  35.7203966
  60.9822510  45.2233375  35.6221087  67.0045916  43.8663202  38.2143622
  66.4872858  43.5070617  37.6104931  67.7020308  43.3425376  38.2249689
  67.0311498  43.7360890  38.1273881  70.6609508  44.3158016  44.1759796
  70.7492854  44.1284156  45.0238006  71.0899221  43.6695445  43.7764642
  70.7371611  44.1921023  44.2431547  68.2279968  43.5989176  43.1577458
  67.6650803  43.1861785  43.6817119  68.9900992  43.5242081  43.5770601
  68.2574417  43.5266576  43.2970458  69.8364948  35.6041912  27.2839057
  70.0760952  35.8119896  26.4714400  70.1580789  34.7999421  27.3928002
  69.9202106  35.5156013  27.1799610  65.1455238  27.5335308  31.1298595
  65.9001206  27.9013625  30.8915645  64.9682773  27.9074862  31.8977775
  65.2309717  27.6433495  31.2083484  63.7875960  45.5887197  35.7614088
  64.4896539  45.0739186  35.8186844  63.7073443  45.9161348  36.5660963
  63.8799720  45.5601423  35.8886880  64.8354866  35.8262784  44.8894503
  65.0075370  35.7168678  45.7379784  65.3724224  36.4717189  44.6525695
  64.9399870  35.9054785  44.9799600  63.5012303  29.9405627  27.8276708
  63.3187876  30.1577507  27.0017701  64.3637916  30.0544639  27.8835322
  63.6016893  29.9895525  27.7131195  63.1126735  41.7793549  35.2699696
  63.9515634  42.0116482  35.3173457  63.1438504  40.9097860  35.2006731
  63.2408453  41.6850495  35.2664341  63.7379438  42.1994424  39.5713001
  64.2777663  42.0565555  40.2416374  63.0549384  42.5991175  39.9397028
  63.7171592  42.2374095  39.7247423  69.1812022  26.9432037  30.8625732
  69.9098183  26.7647992  30.4163888  69.2706915  27.7850117  31.0732910
  69.3018684  27.0415916  30.8279249  70.7729568  43.7467035  46.8403579
  71.5569984  43.8597882  47.2059321  70.5726162  42.9208172  47.0362265
  70.8595593  43.6413754  46.9237965  59.1416583  38.4194715  39.7247423
  58.8754998  37.6033831  39.8838413  59.1555147  38.4647870  38.8542938
  59.1041305  38.3051620  39.6200905  63.0474330  33.2179799  26.3399181
  62.3332507  32.9317979  26.7521614  63.5318299  33.5576425  26.9805569
  63.0133693  33.2261449  26.4954816  63.8915189  31.9573093  42.3714431
  63.1986986  31.4870073  42.6175162  64.5075517  31.7311398  42.9456138
  63.8799719  31.8540225  42.4923583  70.9299961  45.6577137  40.4870035
  70.1315207  45.4176637  40.7443903  71.3785972  45.7091530  41.2337082
  70.8774572  45.6299528  40.6354959  70.2221648  41.7209753  26.7160989
  70.6372796  41.3894777  26.0245485  69.3913578  41.4878655  26.5881126
  70.1609657  41.6381009  26.5951837  59.5509997  39.2053494  37.0059167
  59.3685570  39.1800380  36.1531459  60.2859666  39.6752432  37.0448076
  59.6324061  39.2714856  36.8857086  62.6155748  35.9238497  43.5141276
  63.3395721  35.9091528  44.0006171  62.7171885  36.6333852  43.0163244
  62.7373957  36.0263200  43.5120063  69.9900698  39.4037582  48.3790223
  69.1973679  39.7181094  48.5642843  70.1049625  39.6189050  47.5411008
  69.8896108  39.4821418  48.2828558  70.9184491  39.3057785  43.3175520
  71.4923352  38.6685030  43.4724084  70.8399294  39.3061868  42.4485177
  70.9917725  39.2122897  43.2121930  59.5180907  36.0846995  37.1558234
  60.0954410  35.9483446  37.7950479  58.8194969  35.6282779  37.4103818
  59.5001928  35.9969261  37.2880523  66.2748209  37.7381051  35.3696717
  66.0167454  36.9052785  35.3428016  66.3296692  37.9638664  34.5289217
  66.2447987  37.6478822  35.2416854  71.3549259  29.8409501  35.4700810
  70.6505586  29.3518687  35.6284729  71.4034234  29.8531976  34.5989254
  71.2579311  29.7699149  35.3640149  65.2482921  35.2918813  35.8561612
  64.6732513  35.4510981  36.4925573  64.8718598  34.6554222  35.3930062
  65.1085734  35.2216626  35.8816170  68.9156210  33.7642162  40.7153990
  68.5270643  33.3396380  40.0606181  68.2510908  34.0124312  41.2231017
  68.7603138  33.7380883  40.6941858  70.0195148  37.9940767  28.9130797
  70.8335787  38.2855660  28.8013569  69.9554290  37.3400629  28.3389090
  70.1297887  37.9405962  28.8119634  65.8903057  41.4662284  34.0403109
  66.5277003  41.2274032  34.5854903  66.3158128  41.6699443  33.3056270
  66.0479223  41.4613295  34.0120267  60.5815699  43.7050621  37.9237413
  60.6219844  43.9765472  37.0957193  61.1410223  44.2292529  38.3395201
  60.6699045  43.8226376  37.8629301  66.5305872  36.6864574  28.3777999
  66.9151024  36.4672281  29.1294544  66.2817492  37.5127520  28.5079075
  66.5507944  36.7762720  28.5079075  66.6974412  29.9670989  48.0940583
  66.3827853  30.7370552  47.8310146  66.3764345  29.4041245  47.5092810
  66.6033331  29.9981258  47.9681933  68.2724529  41.9434707  35.7196895
  68.3463537  41.7809879  36.5738745  69.0894035  42.1324897  35.4757377
  68.4040887  41.9471449  35.8094921  62.0330285  42.2892570  32.7491339
  61.2068403  42.5354307  32.6225618  62.0942276  42.2104651  33.6153397
  61.9204452  42.3137519  32.8580283  64.2506309  28.3561511  33.7086779
  63.3828734  28.4284110  33.7744388  64.5381513  29.1583590  33.8974754
  64.1646057  28.4855658  33.7461546  66.8129114  44.9069450  30.4510369
  67.1027413  44.5158431  29.7269596  67.5432595  45.0886155  30.8915644
  66.9635998  44.8763264  30.4093176  67.4023859  39.7087196  41.5363499
  66.9035553  40.4202964  41.6148388  68.2124084  40.0287863  41.4981662
  67.4479966  39.8614045  41.5420068  64.7535030  46.8836832  33.5170519
  64.5335325  46.5934187  34.3097186  64.5329552  46.2251787  32.9888431
  64.6882624  46.7436541  33.5559427  63.6651977  38.9710149  35.7826220
  63.3765226  38.3447620  36.3171948  64.5335325  38.9130436  35.8490901
  63.7512229  38.8697693  35.8717175  66.9202986  48.2566222  32.3001211
  67.5727044  47.7242665  32.5292237  66.2228594  47.9034875  32.6869085
  66.9133704  48.1255745  32.3913379  63.8684250  40.6105400  31.7068585
  64.6230218  40.9918439  31.9204048  63.2754863  41.0616544  32.1615282
  63.8920964  40.7334227  31.8051464  66.3290917  32.5668240  46.8325798
  65.5190693  32.8726020  46.7215640  66.8065604  33.2873823  46.9478382
  66.2794396  32.7182842  46.8332869  65.1882477  41.7813961  37.0808701
  64.6663231  41.9214253  37.7660565  65.5756497  41.0224626  37.2710818
  65.1686178  41.6899485  37.2109777  62.1773661  31.8319770  31.1503655
  61.8898457  31.4621041  30.4135603  62.8644129  32.3014625  30.8887360
  62.2362558  31.8466739  31.0018731  71.3849482  43.5209421  31.0669269
  71.1436158  42.7877281  30.6596334  71.5650815  44.0696278  30.4135603
  71.3757106  43.4931812  30.9099492  66.6148803  38.8117980  32.4790192
  66.4191585  39.4192715  31.8850495  66.8383148  38.1185924  31.9981866
  66.6183444  38.7995506  32.3206273  65.0127333  35.6972718  32.5971060
  65.7349985  35.8613876  32.1374866  64.5335325  36.4182383  32.4910400
  65.0491063  35.8270948  32.5136674  62.6634949  38.1030791  41.7025200
  63.1756046  38.3815044  41.0533960  62.3771292  38.8420085  42.0688013
  62.6969812  38.2533144  41.6615078  71.4190118  28.9321894  32.7095361
  72.1216471  28.7329642  32.2315319  71.1534307  28.1597836  33.0164204
  71.4836751  28.7884860  32.6840803  59.7501856  32.6100983  31.9988936
  59.8517992  33.4127144  32.3269912  60.5457742  32.4088318  31.7012017
  59.8829761  32.6986881  32.0024292  66.1818675  30.1957179  41.7626242
  65.9901872  30.2112314  42.6125665  67.0317271  30.3920854  41.7392896
  66.2794397  30.2271531  41.8849536  60.5665588  32.7248161  39.7410058
  60.4251080  31.8732101  39.8654566  60.8506151  32.7676821  38.9172264
  60.5873434  32.6047911  39.6377682  70.7204180  34.5615251  33.8854546
  70.4738894  34.4811002  34.7191335  71.0489303  33.7768719  33.6917074
  70.7325424  34.4341516  33.9802069  66.6801207  37.2971970  43.2977529
  66.8244583  37.8773178  42.6620639  67.0276856  37.6748266  44.0027384
  66.7528669  37.4392674  43.3076524  68.8521125  36.4962138  41.0802661
  68.1044439  36.6893152  40.6750939  69.0062650  35.6707357  40.8426782
  68.7643552  36.4027249  40.9848067  65.7528962  45.4874741  40.1638556
  65.9018526  44.9277657  39.5111961  66.5328964  45.5666743  40.5471075
  65.8903056  45.4160307  40.1235505  68.2782263  45.6589384  41.4423047
  68.2025934  44.9898195  41.9973835  68.2072122  46.3607172  41.9563713
  68.2562870  45.6634292  41.5999895  69.0922902  30.3912689  41.9698065
  69.5495516  31.1236663  42.0970857  69.1679231  29.9679154  42.7285321
  69.1713872  30.4369927  42.0999141  61.3355893  30.6378508  43.0587508
  60.7998082  30.0258867  43.3748276  61.3973658  31.2126644  43.7121175
  61.2651526  30.6325436  43.2022935  68.9352510  44.1790383  32.2746653
  69.7002401  43.9100027  31.9529317  68.8330600  43.6940393  32.9916716
  69.0334005  44.0679948  32.3326481  66.9705280  32.3814793  38.8139889
  66.1801354  32.2006253  39.1357225  67.3665903  31.6041745  38.7970183
  66.9122156  32.2402254  38.8592437  69.4843110  34.8575052  43.2963388
  69.4202251  35.7185008  43.1683524  69.6240298  34.5407045  42.4958939
  69.4958580  34.9375218  43.1591601  68.1662204  37.5507191  37.4379591
  67.7424453  37.7511690  36.7018609  67.9907059  36.7036039  37.5503890
  68.0773084  37.4555973  37.3453281  67.6673897  49.0657704  39.9001048
  68.1569828  48.3668493  39.7176712  67.0958130  48.7681574  40.4877105
  67.6558427  48.9183928  39.9602089  63.4544649  38.0459242  32.8707563
  63.6109268  37.9806045  33.7263555  63.7945242  38.8207795  32.6586243
  63.5277884  38.1508441  32.9662157  69.9923793  37.4217126  31.7400926
  70.5339339  36.9187507  32.2039547  70.3070352  37.3682321  30.9290412
  70.1188191  37.3396547  31.6884738  68.1610243  42.8134478  29.0240954
  68.2303063  41.9549016  29.1633955  68.9398698  43.0306358  28.6959979
  68.2863093  42.7187342  28.9958112  71.1413063  32.3153431  41.7923227
  71.3555032  31.6764345  41.2386581  70.5246962  32.7599254  41.3631089
  71.0818392  32.2863574  41.6473658  60.0278910  35.2294193  33.1868330
  60.4077875  35.6478738  32.5228598  59.4534275  35.8107649  33.4937174
  59.9990235  35.3772052  33.1345071  67.5045771  37.4821333  25.7183713
  67.7938296  38.2586216  25.9927287  67.5917570  36.9710065  26.4198212
  67.5600027  37.5213251  25.8626210  70.4005658  35.3302567  47.5135236
  70.8705289  35.9544684  47.9003110  70.4467538  34.6619543  48.0728451
  70.4773534  35.3237247  47.6535308  67.5576932  27.4359595  38.2384040
  67.0415421  26.7439786  38.3635619  66.9970861  28.1030372  38.1846639
  67.3983445  27.4322852  38.2490106  69.6269165  27.9752555  40.0676893
  69.2400919  28.0001586  40.8490422  69.1402103  27.4094233  39.6151409
  69.4981674  27.8948306  40.1164796  69.2926307  24.8619540  42.3587152
  69.9219425  25.3979840  42.0808223  69.4612170  24.7696899  43.2100718
  69.4104102  24.9280902  42.4435681  69.0940222  29.6490735  44.6313564
  69.9213651  29.3775884  44.6872178  69.1148068  30.4451577  44.9877382
  69.2193072  29.7270489  44.6928747  63.6709712  36.7954598  37.8183825
  62.8297718  36.6958472  38.0262719  63.8799720  37.5650078  38.1698145
  63.5774404  36.8946641  37.9011140  61.1485279  34.4174135  35.6468575
  60.7541977  34.4917146  34.8718685  60.5925396  34.8032081  36.1976937
  61.0088091  34.4855909  35.6136235  67.4826377  34.7235997  37.0681422
  67.1789514  34.1691985  37.6691830  66.7805797  34.9028207  36.5809456
  67.3342587  34.6680779  37.0851128  66.5392474  32.0336517  31.6326124
  66.8152208  31.3155429  31.2203692  67.1391143  32.6321437  31.4247230
  66.6685738  32.0156887  31.5406885  65.5444728  41.9385718  41.7753520
  65.4365083  41.9487780  42.6415578  65.7540509  42.7640498  41.5858474
  65.5594839  42.0626792  41.8757612  70.0402994  29.7050034  29.9072719
  70.4946741  29.8760594  30.6320564  70.5143040  29.0918145  29.5070495
  70.1771314  29.6400919  29.9546481  63.5618520  39.1898360  39.2375458
  62.9706453  39.8307858  39.2078473  64.3239543  39.6135977  39.2106757
  63.5866780  39.3474198  39.2290605  63.9579143  30.3500358  39.9043475
  64.4180624  30.4239287  40.6418599  64.0035249  31.1481612  39.5543297
  64.0329698  30.4794505  39.9616232  65.6062492  31.0167053  44.4715502
  65.2148057  30.3700400  44.9071280  65.7748355  31.6078488  45.0909758
  65.5733403  31.0081320  44.6278208  67.3816014  36.4092568  31.0117726
  68.1258059  36.7966845  31.2500676  67.5276710  35.5649994  31.1758214
  67.5126599  36.3423041  31.0711696  69.2995590  28.2042827  36.0449588
  68.4531635  28.3765635  35.9190938  69.2966722  27.3992171  36.3815416
  69.1742740  28.1103856  36.0760715  70.3693890  31.9818042  36.9111646
  69.8953844  31.4559804  37.4216957  70.7412026  31.4347515  36.3426507
  70.3543779  31.8234038  36.9026793  60.7466920  33.9789548  42.2795191
  61.6092533  33.8785258  42.1932521  60.4158703  33.3984258  41.7180764
  60.8252117  33.8781175  42.1840597  64.1068706  32.8031997  38.9405610
  63.4821776  32.8150389  38.3331562  63.7714301  33.2792173  39.5896850
  63.9654198  32.8750514  38.9462178  64.2910455  31.1457116  24.9978295
  63.9423259  31.7976841  25.4609844  63.8106901  31.1314229  24.2702166
  64.1680699  31.2400169  24.9589386  60.8194382  40.8632458  40.3809374
  60.2894306  40.1724896  40.4304349  61.0919475  40.8542643  39.5522082
  60.7819104  40.7599589  40.2656790  71.0200627  38.3055702  40.3547746
  70.4057621  37.7613752  40.6496381  71.5367912  37.7919939  39.8753562
  71.0056290  38.1492111  40.3271974  70.2596925  39.3759972  38.0892044
  69.8324533  38.7509691  37.6557480  70.2521869  39.0934894  38.9151051
  70.1956066  39.2412753  38.1471872  63.3759452  34.4125145  41.1580478
  63.5352938  33.6568469  41.5632200  63.1952345  34.9616085  41.8121216
  63.3724811  34.3818959  41.3143184  71.3179755  26.5786381  41.7131268
  70.8220316  26.7750055  41.0222834  72.0748817  26.9779049  41.5420069
  71.3566579  26.6664115  41.5851404  68.5882634  30.2528727  38.3034578
  68.6125121  29.7188839  37.6147358  68.8394108  29.7446036  38.9660169
  68.6292553  30.0989631  38.2999223  64.8683956  28.9799545  37.6840322
  64.9082328  29.4808752  38.3975030  64.0433621  29.0709939  37.4146246
  64.7523482  29.0681361  37.7490861  67.0513569  38.5460285  45.7860617
  66.2009200  38.6831999  45.9218262  67.2141697  37.8124063  46.2308319
  66.9497433  38.4574386  45.8716216  66.2898320  35.4960055  39.9814221
  65.4590250  35.6633873  39.7749470  66.2349837  35.1196006  40.7663107
  66.1587735  35.4649786  40.0662750  64.0982103  28.9868948  45.6170632
  64.7234807  28.4431080  45.8900064  63.6432583  28.5063865  45.0478423
  64.1230364  28.8358429  45.5732226  64.6634364  33.7715646  30.5104339
  64.8037325  34.2688111  31.2132981  65.1616896  33.0701941  30.6518553
  64.7575445  33.7417625  30.6355918  64.6934586  34.6382757  27.8396916
  65.3279666  35.2343182  27.7746378  64.7760197  34.3386215  28.6542786
  64.7991137  34.6823666  27.9500003  66.2713569  30.5696733  27.8142358
  66.5929410  30.0899815  27.1601620  66.5340513  31.3796379  27.6233170
  66.3579594  30.6186631  27.6897850  69.5010542  41.5915607  41.3341174
  68.9935633  42.1451454  41.7781805  69.2037188  41.6523897  40.5159949
  69.3815427  41.6821918  41.2789631  71.6672724  29.9568927  40.1765837
  72.0927795  29.5041453  39.5649363  71.0529717  29.4028997  40.4530625
  71.6401369  29.8082903  40.1270862  61.1987574  36.8350598  31.1086462
  61.7079803  37.4315106  31.4897768  61.6721846  36.5676572  30.4262882
  61.3430950  36.8836414  31.0640985  70.1066947  26.4284027  33.5856414
  69.4635265  26.2781673  34.1541553  69.7666354  26.1826372  32.8205519
  69.9612024  26.3696149  33.5559429  68.7453027  46.5240165  38.2398181
  68.5218681  45.7658995  38.6082207  68.2562870  46.5538187  37.5178621
  68.6396476  46.4162390  38.1874922  63.5578106  33.4706857  33.9759642
  62.8390095  33.8870989  34.2432506  63.9290468  34.0361095  33.4251281
  63.5070037  33.6156138  33.9342449  70.8024016  40.6921898  45.7910115
  70.7619871  40.0471575  45.2055271  71.6147335  40.6358515  46.1035527
  70.9167170  40.5880864  45.7507064  67.3931484  46.7440623  35.6935266
  66.9791883  46.0814754  35.3039107  68.0778858  46.8918482  35.1730960
  67.4329856  46.6681282  35.5591763  70.7596778  45.9030709  36.4458882
  70.3613061  46.0132979  35.6779702  70.1447998  46.1112775  37.0285442
  70.6095667  45.9504277  36.4190182  69.3324680  32.5104857  29.3133022
  68.7389519  32.8321853  28.7617589  69.3699958  31.6645952  29.1054128
  69.2499069  32.4329185  29.2015793  66.4901725  34.3218834  42.3459872
  65.9780628  33.7140017  42.7044904  66.3181221  35.0375427  42.8133848
  66.3891362  34.3382133  42.4676096  61.3367440  32.7656409  44.9962234
  61.1670030  33.4257784  44.4510441  60.8933390  32.9762971  45.7174723
  61.2466773  32.8942392  45.0223864  65.2627259  31.0060907  34.0388968
  65.7384625  31.3677987  33.4039149  64.7615859  31.6617375  34.3189111
  65.2592618  31.1555096  33.9865709  70.3670795  32.2443079  44.7862128
  70.9242226  32.0156888  44.1540593  70.0431860  33.0048744  44.5097340
  70.4017206  32.3226915  44.6518625  58.2369504  35.6703275  40.2550724
  57.6896224  35.0003921  40.3731592  59.0261882  35.3033123  40.3194191
  58.2721688  35.5168261  40.2819425  68.0853913  35.3310732  45.7514135
  68.8365240  35.6462409  46.0653689  68.2776489  35.1289903  44.9248057
  68.2245327  35.3478114  45.6757531  67.3053912  33.1502107  27.4062352
  67.6852877  33.1681736  26.6213466  66.5646508  33.5956096  27.2853199
  67.2522750  33.2183882  27.2725920  68.1038666  39.9879613  28.7971142
  67.2949989  39.6646287  28.7504451  68.6113575  39.2812835  28.7299390
  68.0588333  39.8360930  28.7801436  58.7328944  37.4151807  34.5218506
  57.8674463  37.4037497  34.4101277  58.8327760  37.2282029  35.3689645
  58.6203111  37.3857868  34.6307450  64.3585954  47.1849705  38.0948612
  64.6732513  47.9986094  38.1026393  64.7679367  46.7999924  38.7630771
  64.4654052  47.2478408  38.1952703  71.3110473  42.6019752  35.6652424
  71.7821651  43.3160015  35.8342409  71.6470652  42.0018502  36.2012293
  71.4305588  42.6191216  35.7684799  68.2279968  27.3747222  42.6210518
  68.3607874  26.5778216  42.9491494  68.6125121  27.9013625  43.2008794
  68.3036297  27.3347139  42.7554021  71.3012323  24.2977549  39.2191612
  70.4958287  24.1875278  39.5359450  71.1719059  24.3990004  38.3621477
  71.1632456  24.2961219  39.1399652  67.2973083  29.3763635  30.0889983
  68.1188777  29.5461948  29.8471678  66.8342734  29.5310896  29.3656281
  67.3504245  29.4245368  29.9461628  65.8868415  27.3706398  40.8688412
  66.4312828  27.0297524  41.4592754  65.9405351  28.2291859  41.0109697
  65.9757534  27.4461657  40.9770285  61.6998974  41.1322814  37.7427220
  62.3043831  41.0918648  37.1141041  61.4926286  41.9793966  37.7731276
  61.7587871  41.2510816  37.6543336  70.3447021  55.7130658  34.3337602
  70.1097206  54.8798310  34.2269871  70.4832662  55.9935324  33.5198803
  70.3302684  55.6314161  34.1979957  70.1149167  53.9380023  39.7247423
  69.8487582  53.1219139  39.8838413  70.1287731  53.9833178  38.8542938
  70.0773889  53.8236928  39.6200905  70.5242580  54.7238802  37.0059167
  70.3418154  54.6985688  36.1531459  71.2592249  55.1937740  37.0448076
  70.6056644  54.7900164  36.8857086  70.4913491  51.6032303  37.1558234
  71.0686993  51.4668754  37.7950479  69.7927552  51.1468087  37.4103818
  70.4734512  51.5154569  37.2880523  65.9672324  50.4544196  33.8706052
  66.0532576  50.0776064  34.6519582  66.5948121  50.0804641  33.3926011
  66.0728875  50.3429678  33.9151530  71.5548283  59.2235929  37.9237413
  71.5952428  59.4950780  37.0957193  72.1142807  59.7477837  38.3395201
  71.6431628  59.3411684  37.8629301  70.7234439  48.1286290  31.9988936
  70.8250576  48.9312452  32.3269912  71.5190326  47.9273626  31.7012017
  70.8562345  48.2172189  32.0024292  71.5398171  48.2433469  39.7410058
  71.3983663  47.3917409  39.8654566  71.8238735  48.2862129  38.9172264
  71.5606017  48.1233219  39.6377682  71.0011494  50.7479501  33.1868330
  71.3810459  51.1664046  32.5228598  70.4266859  51.3292957  33.4937174
  70.9722819  50.8957360  33.1345071  72.1217862  49.9359443  35.6468575
  71.7274560  50.0102454  34.8718685  71.5657979  50.3217389  36.1976937
  71.9820675  50.0041217  35.6136235  71.7926965  56.3817765  40.3809374
  71.2626890  55.6910204  40.4304349  72.0652059  56.3727951  39.5522082
  71.7551688  56.2784897  40.2656790  67.0722808  53.0545530  37.7377722
  66.9666257  53.0092374  36.8729806  66.3223028  53.3999310  38.0192007
  66.9458411  53.0986438  37.6515052  69.2102088  51.1888583  40.2550724
  68.6628807  50.5189228  40.3731592  69.9994466  50.8218431  40.3194191
  69.2454272  51.0353569  40.2819425  67.9689057  50.4009391  37.4096747
  67.7910818  49.9486000  38.1351663  67.6808079  51.2035552  37.5935225
  67.9002011  50.4531949  37.5440250  69.7061527  52.9337114  34.5218506
  68.8407047  52.9222805  34.4101277  69.8060343  52.7467337  35.3689645
  69.5935694  52.9043176  34.6307450  67.9082840  55.6342739  37.6126143
  67.8107118  54.8239011  37.9216200  68.6911709  55.6134532  37.2272411
  68.0098976  55.5109829  37.6013006  53.3182878   5.5799495  19.3762543
  52.5665777   5.2015033  19.1478588  53.7668889   5.6117928  18.6281353
  53.2732544   5.5285102  19.2320045  58.3112129   7.9539133  20.7459201
  58.6951508   8.5226031  20.2063976  58.2471270   7.2288643  20.2665017
  58.3585556   7.9314596  20.5953064  54.7368373  10.5095476  23.0440171
  55.3805829  10.9508640  23.4336329  55.0624629   9.7048902  22.9570430
  54.8800202  10.4560671  23.0885648  49.6550003   6.4923844  22.5433855
  49.1717581   7.2174334  22.5193438  50.4673321   6.7899974  22.6544013
  49.7040750   6.6426198  22.5561134  52.5094200   7.0080020  22.6954135
  53.2114779   6.4932009  22.7526891  52.4291683   7.3354171  23.5001010
  52.6017960   6.9794246  22.8226927  59.6518201   7.0769960  27.4210081
  58.8533447   6.8369460  27.6783950  60.1004213   7.1284353  28.1677129
  59.5992813   7.0492351  27.5695006  49.3033939   5.1243444  24.8577460
  49.3438085   5.3958295  24.0297239  49.8628463   5.6485352  25.2735248
  49.3917285   5.2419199  24.7969348  50.7548526   3.7085393  19.6831386
  49.9286643   3.9547130  19.5565665  50.8160517   3.6297474  20.5493444
  50.6422693   3.7330342  19.7920330  55.5347355   6.3262273  17.3850416
  55.8245653   5.9351255  16.6609642  56.2650835   6.5078978  17.8255691
  55.6854239   6.2956087  17.3433223  53.4753270   8.3029656  20.4510565
  53.2553566   8.0127010  21.2437232  53.2547792   7.6444611  19.9228478
  53.4100864   8.1629364  20.4899474  55.6421226   9.6759046  19.2341258
  56.2945284   9.1435488  19.4632284  54.9446835   9.3227698  19.6209132
  55.6351944   9.5448569  19.3253426  54.4747203   6.9067565  27.0978603
  54.6236766   6.3470481  26.4452007  55.2547205   6.9859566  27.4811122
  54.6121296   6.8353130  27.0575552  57.0000503   7.0782208  28.3763094
  56.9244174   6.4091018  28.9313882  56.9290362   7.7799996  28.8903760
  56.9781110   7.0827115  28.5339942  56.3892138  10.4850527  26.8341095
  56.8788068   9.7861317  26.6516759  55.8176370  10.1874397  27.4217152
  56.3776668  10.3376751  26.8942135  57.4671267   7.9432989  25.1738228
  57.2436922   7.1851818  25.5422254  56.9781111   7.9731010  24.4518667
  57.3614716   7.8355213  25.1214969  56.1149724   8.1633447  22.6275312
  55.7010123   7.5007577  22.2379154  56.7997099   8.3111305  22.1071007
  56.1548096   8.0874105  22.4931810  59.4815018   7.3223532  23.3798929
  59.0831302   7.4325802  22.6119749  58.8666238   7.5305598  23.9625489
  59.3313908   7.3697100  23.3530228  53.0804194   8.6042528  25.0288658
  53.3950753   9.4178917  25.0366440  53.4897607   8.2192747  25.6970818
  53.1872292   8.6671231  25.1292750  69.9074321  11.5622085  23.6125311
  69.0512217  11.7230583  23.6634428  69.9541975  10.6914149  23.6330372
  69.7873433  11.4572887  23.6231377  64.2915461  21.0984803  19.3762543
  63.5398361  20.7200341  19.1478588  64.7401473  21.1303236  18.6281353
  64.2465128  21.0470410  19.2320045  69.2844712  23.4724441  20.7459201
  69.6684092  24.0411339  20.2063976  69.2203854  22.7473951  20.2665017
  69.3318140  23.4499904  20.5953064  65.8700217  21.1103195  21.6425315
  65.9710580  20.3003549  21.9522443  65.2741963  21.0160141  21.0124994
  65.7972756  20.9768223  21.5951553  65.7100957  26.0280784  23.0440171
  66.3538412  26.4693948  23.4336329  66.0357212  25.2234210  22.9570430
  65.8532786  25.9745979  23.0885648  59.0665262  17.1323481  21.2677649
  58.8315446  16.2991134  21.1609917  59.2050902  17.4128147  20.4538850
  59.0520924  17.0506985  21.1320004  61.3655349   9.3009212  24.1661956
  60.7460381   8.7101859  23.9971971  61.2639213   9.8920647  23.5326280
  61.2593025   9.3013294  24.0466946  66.4121537  19.0392759  18.4160033
  66.7337378  19.5797966  17.8121341  67.0593633  18.4689530  18.5482323
  66.5547592  19.0351934  18.3467068  61.0924482  12.8461494  26.4105525
  60.9683179  13.4323939  27.0455344  61.7442767  12.3521689  26.7117800
  61.1698131  12.8600298  26.5491455  68.6511180  17.4279199  18.4874211
  69.0904816  16.8196299  18.9328984  68.5015843  17.0486572  17.7159676
  68.6932646  17.2817670  18.4393378  66.1182823  16.0223211  25.6893036
  66.7631826  15.5295654  25.3703985  66.3584600  16.1647997  26.5159115
  66.2493408  15.9700653  25.7642570  68.6568914  18.8678116  25.3399929
  68.9392157  18.0729522  25.1186685  69.3855075  19.3458704  25.3604990
  68.8058478  18.8212713  25.3102944  65.0738558  16.2954391  15.7410183
  64.4895773  16.8004422  16.1476047  64.6708653  16.0696778  15.0006775
  64.9277861  16.3362639  15.6915209  60.6282586  22.0109152  22.5433855
  60.1450165  22.7359642  22.5193438  61.4405905  22.3085282  22.6544013
  60.6773334  22.1611506  22.5561134  66.6996740  20.8041333  25.1483669
  66.1823682  20.4448748  24.5444977  67.3971132  20.2803507  25.1589735
  66.7262321  20.6739021  25.0613928  70.3560332  21.2536147  31.1099842
  70.4443678  21.0662287  31.9578053  70.7850045  20.6073576  30.7104689
  70.4322435  21.1299155  31.1771594  67.9230792  20.5367307  30.0917505
  67.3601627  20.1239917  30.6157166  68.6851816  20.4620212  30.5110648
  67.9525241  20.4644707  30.2310505  63.4826784  22.5265328  22.6954135
  64.1847363  22.0117317  22.7526891  63.4024267  22.8539479  23.5001010
  63.5750544  22.4979554  22.8226927  64.5305690  12.7640915  31.8234550
  64.7026194  12.6546810  32.6719831  65.0675048  13.4095320  31.5865742
  64.6350694  12.8432917  31.9139646  62.8077559  18.7171680  22.2039743
  63.6466458  18.9494613  22.2513504  62.8389328  17.8475991  22.1346778
  62.9359277  18.6228626  22.2004387  63.4330262  19.1372555  26.5053048
  63.9728487  18.9943686  27.1756421  62.7500208  19.5369306  26.8737074
  63.4122416  19.1752226  26.6587470  70.4680392  20.6845166  33.7743626
  71.2520808  20.7976014  34.1399368  70.2676986  19.8586303  33.9702312
  70.5546417  20.5791885  33.8578012  58.8367407  15.3572846  26.6587470
  58.5705822  14.5411963  26.8178460  58.8505971  15.4026002  25.7882985
  58.7992129  15.2429751  26.5540952  63.5866013   8.8951224  29.3054477
  62.8937810   8.4248204  29.5515209  64.2026341   8.6689529  29.8796185
  63.5750543   8.7918356  29.4263630  70.6250785  22.5955268  27.4210081
  69.8266031  22.3554768  27.6783950  71.0736796  22.6469661  28.1677129
  70.5725396  22.5677659  27.5695006  59.2460821  16.1431625  23.9399214
  59.0636394  16.1178511  23.0871506  59.9810490  16.6130563  23.9788123
  59.3274885  16.2092988  23.8197132  62.3106572  12.8616628  30.4481323
  63.0346545  12.8469659  30.9346217  62.4122709  13.5711983  29.9503291
  62.4324781  12.9641331  30.4460109  69.6851522  16.3415713  35.3130270
  68.8924503  16.6559225  35.4982889  69.8000449  16.5567181  34.4751054
  69.5846932  16.4199550  35.2168604  70.6135315  16.2435917  30.2515566
  71.1874176  15.6063161  30.4064130  70.5350118  16.2439999  29.3825224
  70.6868549  16.1501028  30.1461977  59.2131731  13.0225126  24.0898281
  59.7905234  12.8861577  24.7290526  58.5145793  12.5660910  24.3443865
  59.1952752  12.9347392  24.2220570  65.9699033  14.6759182  22.3036764
  65.7118277  13.8430917  22.2768063  66.0247516  14.9016795  21.4629264
  65.9398811  14.5856953  22.1756901  64.9433745  12.2296944  22.7901659
  64.3683337  12.3889113  23.4265620  64.5669422  11.5932353  22.3270109
  64.8036558  12.1594757  22.8156217  68.6107034  10.7020293  27.6494037
  68.2221467  10.2774511  26.9946228  67.9461732  10.9502443  28.1571064
  68.4553962  10.6759015  27.6281905  54.6890564  11.8737019  20.8046099
  54.7750816  11.4968887  21.5859629  55.3166362  11.4997465  20.3266057
  54.7947115  11.7622501  20.8491576  65.5853881  18.4040416  20.9743156
  66.2227827  18.1652163  21.5194949  66.0108952  18.6077574  20.2396317
  65.7430047  18.3991426  20.9460313  60.2766523  20.6428752  24.8577460
  60.3170668  20.9143603  24.0297239  60.8361047  21.1670660  25.2735248
  60.3649869  20.7604507  24.7969348  66.2256696  13.6242705  15.3118045
  66.6101848  13.4050412  16.0634591  65.9768316  14.4505651  15.4419122
  66.2458768  13.7140852  15.4419122  67.9675352  18.8812838  22.6536942
  68.0414361  18.7188010  23.5078792  68.7844859  19.0703028  22.4097424
  68.0991711  18.8849580  22.7434968  61.7281109  19.2270701  19.6831386
  60.9019227  19.4732438  19.5565665  61.7893100  19.1482782  20.5493444
  61.6155276  19.2515650  19.7920330  66.5079938  21.8447581  17.3850416
  66.7978237  21.4536563  16.6609642  67.2383419  22.0264286  17.8255691
  66.6586822  21.8141395  17.3433223  67.0974683  16.6465327  28.4703546
  66.5986377  17.3581095  28.5488435  67.9074908  16.9665994  28.4321709
  67.1430790  16.7992176  28.4760115  63.3602801  15.9088280  22.7166267
  63.0716050  15.2825751  23.2511994  64.2286149  15.8508568  22.7830948
  63.4463053  15.8075824  22.8057222  66.6153809  25.1944354  19.2341258
  67.2677868  24.6620796  19.4632284  65.9179418  24.8413006  19.6209132
  66.6084527  25.0633877  19.3253426  63.5635074  17.5483531  18.6408632
  64.3181042  17.9296570  18.8544095  62.9705687  17.9994675  19.0955329
  63.5871788  17.6712359  18.7391511  66.0241741   9.5046372  33.7665844
  65.2141517   9.8104151  33.6555687  66.5016428  10.2251954  33.8818429
  65.9745220   9.6560973  33.7672916  64.8833301  18.7192093  24.0148748
  64.3614054  18.8592384  24.7000612  65.2707321  17.9602757  24.2050865
  64.8637002  18.6277616  24.1449824  61.8724485   8.7697901  18.0843702
  61.5849281   8.3999172  17.3475650  62.5594953   9.2392757  17.8227407
  61.9313382   8.7844871  17.9358778  71.0800306  20.4587552  18.0009316
  70.8386982  19.7255412  17.5936381  71.2601639  21.0074409  17.3475650
  71.0707930  20.4309943  17.8439539  66.3099627  15.7496112  19.4130239
  66.1142409  16.3570846  18.8190542  66.5333972  15.0564056  18.9321913
  66.3134268  15.7373637  19.2546319  64.7078157  12.6350849  19.5311107
  65.4300808  12.7992008  19.0714913  64.2286149  13.3560514  19.4250447
  64.7441887  12.7649079  19.4476721  62.3585773  15.0408922  28.6365247
  62.8706870  15.3193175  27.9874007  62.0722116  15.7798216  29.0028060
  62.3920636  15.1911276  28.5955125  59.4452680   9.5479114  18.9328983
  59.5468816  10.3505275  19.2609959  60.2408566   9.3466450  18.6352064
  59.5780585   9.6365013  18.9364339  60.2616412   9.6626292  26.6750105
  60.1201903   8.8110233  26.7994613  60.5456975   9.7054953  25.8512311
  60.2824258   9.5426042  26.5717729  66.3752031  14.2350101  30.2317576
  66.5195407  14.8151309  29.5960686  66.7227680  14.6126397  30.9367431
  66.4479493  14.3770805  30.2416571  68.5471949  13.4340269  28.0142708
  67.7995263  13.6271283  27.6090986  68.7013474  12.6085489  27.7766829
  68.4594376  13.3405381  27.9188114  65.4479786  22.4252873  27.0978603
  65.5969350  21.8655788  26.4452007  66.2279788  22.5044874  27.4811122
  65.5853880  22.3538438  27.0575552  67.9733087  22.5967515  28.3763094
  67.8976758  21.9276326  28.9313882  67.9022946  23.2985304  28.8903760
  67.9513694  22.6012423  28.5339942  61.0306717   7.5756640  29.9927555
  60.4948906   6.9636998  30.3088323  61.0924482   8.1504776  30.6461222
  60.9602350   7.5703567  30.1362982  68.6303334  21.1168514  19.2086700
  69.3953225  20.8478158  18.8869364  68.5281424  20.6318525  19.9256763
  68.7284829  21.0058079  19.2666527  72.0499790  16.9535354  23.4739381
  71.3744792  16.7220586  23.9752769  72.0592166  16.3456537  22.8481487
  71.9518294  16.8294279  23.4555534  69.1793934  11.7953183  30.2303435
  69.1153075  12.6563139  30.1023571  69.3191122  11.4785176  29.4298986
  69.1909404  11.8753350  30.0931647  67.8613028  14.4885322  24.3719637
  67.4375277  14.6889821  23.6358656  67.6857883  13.6414170  24.4843937
  67.7723908  14.3934104  24.2793327  67.3624721  26.0035835  26.8341095
  67.8520652  25.3046624  26.6516759  66.7908954  25.7059705  27.4217152
  67.3509251  25.8562059  26.8942135  63.1495473  14.9837374  19.8047610
  63.3060092  14.9184176  20.6603602  63.4896066  15.7585926  19.5926290
  63.2228708  15.0886572  19.9002204  67.8561067  19.7512609  15.9581001
  67.9253887  18.8927147  16.0974002  68.6349522  19.9684490  15.6300026
  67.9813917  19.6565473  15.9298158  59.7229734  12.1672324  20.1208377
  60.1028699  12.5856869  19.4568644  59.1485099  12.7485780  20.4277220
  59.6941059  12.3150183  20.0685118  70.0956482  12.2680698  34.4475283
  70.5656113  12.8922815  34.8343157  70.1418362  11.5997674  35.0068498
  70.1724358  12.2615379  34.5875354  63.3660536  13.7332729  24.7523871
  62.5248542  13.6336603  24.9602765  63.5750544  14.5028209  25.1038192
  63.2725228  13.8324772  24.8351186  60.8436103  11.3552266  22.5808622
  60.4492800  11.4295278  21.8058732  60.2876220  11.7410212  23.1316984
  60.7038915  11.4234040  22.5476282  67.1777201  11.6614128  24.0021469
  66.8740338  11.1070116  24.6031877  66.4756621  11.8406338  23.5149503
  67.0293410  11.6058910  24.0191175  65.2395552  18.8763849  28.7093567
  65.1315907  18.8865911  29.5755625  65.4491333  19.7018629  28.5198521
  65.2545663  19.0004924  28.8097658  63.2569344  16.1276491  26.1715504
  62.6657277  16.7685989  26.1418519  64.0190367  16.5514108  26.1446804
  63.2817604  16.2852330  26.1630652  67.0766838  13.3470700  17.9457773
  67.8208883  13.7344976  18.1840723  67.2227534  12.5028125  18.1098261
  67.2077423  13.2801172  18.0051743  60.4417744  10.9167680  29.2135238
  61.3043357  10.8163389  29.1272568  60.1109527  10.3362389  28.6520810
  60.5202941  10.8159306  29.1180644  63.8019530   9.7410129  25.8745656
  63.1772600   9.7528521  25.2671609  63.4665125  10.2170304  26.5236897
  63.6605022   9.8128646  25.8802225  60.5145206  17.8010589  27.3149421
  59.9845130  17.1103028  27.3644395  60.7870299  17.7920774  26.4862129
  60.4769928  17.6977721  27.1996837  70.7151451  15.2433833  27.2887792
  70.1008444  14.6991884  27.5836428  71.2318736  14.7298070  26.8093608
  70.7007114  15.0870242  27.2612021  69.9547749  16.3138103  25.0232091
  69.5275357  15.6887822  24.5897526  69.9472693  16.0313025  25.8491098
  69.8906890  16.1790884  25.0811918  63.0710276  11.3503276  28.0920525
  63.2303762  10.5946601  28.4972247  62.8903169  11.8994216  28.7461263
  63.0675635  11.3197090  28.2483231  55.7941048  14.4738353  24.6717769
  55.6884497  14.4285197  23.8069853  55.0441268  14.8192133  24.9532054
  55.6676651  14.5179261  24.5855099  66.7464393  15.4838416  32.7200664
  65.8960024  15.6210130  32.8558309  66.9092521  14.7502194  33.1648366
  66.6448257  15.3952517  32.8056263  65.9849144  12.4338186  26.9154268
  65.1541073  12.6012004  26.7089516  65.9300661  12.0574137  27.7003154
  65.8538559  12.4027917  27.0002796  64.3585188  10.7093777  17.4444386
  64.4988149  11.2066242  18.1473027  64.8567720  10.0080072  17.5858600
  64.4526269  10.6795756  17.5695965  69.1961366  18.5293738  28.2681221
  68.6886457  19.0829585  28.7121851  68.8988012  18.5902028  27.4499995
  69.0766251  18.6200049  28.2129678  60.8938398  13.7728729  18.0426509
  61.4030627  14.3693237  18.4237814  61.3672670  13.5054703  17.3602928
  61.0381774  13.8214545  17.9981032  68.4403851  23.4618297  25.1738228
  68.2169505  22.7037126  25.5422254  67.9513694  23.4916318  24.4518667
  68.3347300  23.3540521  25.1214969  63.2528930  10.4084988  20.9099689
  62.5340919  10.8249120  21.1772553  63.6241292  10.9739227  20.3591327
  63.2020861  10.5534269  20.8682496  70.4974840  17.6300029  32.7250161
  70.4570695  16.9849706  32.1395317  71.3098159  17.5736646  33.0375574
  70.6117994  17.5258996  32.6847111  67.0882308  23.6818755  22.6275312
  66.6742706  23.0192885  22.2379154  67.7729682  23.8296613  22.1071007
  67.1280680  23.6059413  22.4931810  70.4547602  22.8408840  23.3798929
  70.0563885  22.9511110  22.6119749  69.8398822  23.0490906  23.9625489
  70.3046491  22.8882408  23.3530228  66.1852549  11.2596965  29.2799919
  65.6731452  10.6518148  29.6384950  66.0132045  11.9753558  29.7473895
  66.0842186  11.2760265  29.4016143  61.0318264   9.7034541  31.9302281
  60.8620854  10.3635915  31.3850488  60.5884214   9.9141102  32.6514770
  60.9417597   9.8320523  31.9563910  57.9320328  12.6081406  27.1890771
  57.3847048  11.9382052  27.3071639  58.7212706  12.2411254  27.2534238
  57.9672512  12.4546393  27.2159471  67.7804737  12.2688863  32.6854182
  68.5316064  12.5840540  32.9993736  67.9727313  12.0668034  31.8588104
  67.9196151  12.2856245  32.6097578  56.6907298  11.8202214  24.3436794
  56.5129059  11.3678823  25.0691709  56.4026320  12.6228375  24.5275271
  56.6220251  11.8724772  24.4780297  67.7989490  16.9257745  15.7311189
  66.9900813  16.6024418  15.6844498  68.3064399  16.2190967  15.6639437
  67.7539157  16.7739061  15.7141483  58.4279768  14.3529938  21.4558553
  57.5625287  14.3415628  21.3441324  58.5278583  14.1660161  22.3029692
  58.3153935  14.3235999  21.5647497  64.0536777  24.1227836  25.0288658
  64.3683336  24.9364225  25.0366440  64.4630191  23.7378055  25.6970818
  64.1604875  24.1856539  25.1292750  71.0061297  19.5397883  22.5992470
  71.4772475  20.2538146  22.7682456  71.3421476  18.9396633  23.1352340
  71.1256412  19.5569347  22.7024846  71.6435243  19.3315817  29.3620163
  71.0956189  18.7073701  29.0940228  72.1048272  19.5210089  28.6464242
  71.6302453  19.2674867  29.2170594  61.3949798  18.0700945  24.6767267
  61.9994655  18.0296779  24.0481088  61.1877110  18.9172097  24.7071323
  61.4538695  18.1888947  24.5883383  71.2093570  20.3366890  25.8929504
  72.0291944  20.1929856  26.1545799  70.9287647  20.9613089  26.4345942
  71.2890313  20.4077242  26.0117444  56.6301080  17.0535562  24.5466190
  56.5325358  16.2431834  24.8556247  57.4129950  17.0327356  24.1612458
  56.7317216  16.9302652  24.5353053  70.0397845  32.6508789  21.2677649
  69.8048030  31.8176442  21.1609917  70.1783486  32.9313455  20.4538850
  70.0253508  32.5692293  21.1320004  69.8099991  30.8758154  26.6587470
  69.5438406  30.0597271  26.8178460  69.8238555  30.9211309  25.7882985
  69.7724713  30.7615059  26.5540952  70.2193404  31.6616933  23.9399214
  70.0368977  31.6363819  23.0871506  70.9543073  32.1315871  23.9788123
  70.3007468  31.7278296  23.8197132  70.1864315  28.5410434  24.0898281
  70.7637817  28.4046885  24.7290526  69.4878376  28.0846218  24.3443865
  70.1685336  28.4532700  24.2220570  65.6623148  27.3922327  20.8046099
  65.7483400  27.0154195  21.5859629  66.2898945  27.0182773  20.3266057
  65.7679699  27.2807809  20.8491576  71.2499106  36.1614060  24.8577460
  71.2903252  36.4328911  24.0297239  71.8093631  36.6855968  25.2735248
  71.3382452  36.2789815  24.7969348  70.4185263  25.0664422  18.9328983
  70.5201400  25.8690583  19.2609959  71.2141150  24.8651758  18.6352064
  70.5513169  25.1550320  18.9364339  71.2348995  25.1811600  26.6750105
  71.0934487  24.3295541  26.7994613  71.5189559  25.2240261  25.8512311
  71.2556841  25.0611350  26.5717729  72.0039301  23.0941947  29.9927555
  71.4681490  22.4822306  30.3088323  72.0657065  23.6690083  30.6461222
  71.9334933  23.0888875  30.1362982  70.6962318  27.6857632  20.1208377
  71.0761283  28.1042177  19.4568644  70.1217683  28.2671088  20.4277220
  70.6673643  27.8335491  20.0685118  71.8168686  26.8737574  22.5808622
  71.4225384  26.9480586  21.8058732  71.2608803  27.2595520  23.1316984
  71.6771499  26.9419348  22.5476282  71.4877789  33.3195897  27.3149421
  70.9577714  32.6288336  27.3644395  71.7602883  33.3106082  26.4862129
  71.4502512  33.2163028  27.1996837  66.7673632  29.9923661  24.6717769
  66.6617081  29.9470505  23.8069853  66.0173852  30.3377441  24.9532054
  66.6409235  30.0364569  24.5855099  72.0050847  25.2219849  31.9302281
  71.8353438  25.8821223  31.3850488  71.5616797  25.4326410  32.6514770
  71.9150181  25.3505831  31.9563910  68.9052912  28.1266714  27.1890771
  68.3579631  27.4567360  27.3071639  69.6945290  27.7596562  27.2534238
  68.9405095  27.9731700  27.2159471  67.6639881  27.3387522  24.3436794
  67.4861642  26.8864131  25.0691709  67.3758903  28.1413683  24.5275271
  67.5952834  27.3910080  24.4780297  69.4012351  29.8715246  21.4558553
  68.5357871  29.8600936  21.3441324  69.5011167  29.6845469  22.3029692
  69.2886518  29.8421307  21.5647497  67.6033663  32.5720870  24.5466190
  67.5057942  31.7617142  24.8556247  68.3862533  32.5512664  24.1612458
  67.7049800  32.4487960  24.5353053   2.6774421  24.2551837  55.6887240
   3.0608027  25.0043193  55.9185337   1.8818534  24.5017656  55.4299229
   2.6168203  24.4021530  55.6844813  12.1692197  34.8322772  57.7817600
  12.1386201  35.6867408  57.9535870  12.7673545  34.5318064  58.3403744
  12.2529354  34.9139268  57.8892403   5.3691881  33.9198423  62.5370531
   4.5129777  34.0806921  62.5879648   5.4159535  33.0490487  62.5575592
   5.2490993  33.8149224  62.5476597   5.2057981  43.8786510  53.7293310
   4.8709349  44.5563432  53.2937532   5.7184851  43.4891821  53.1410181
   5.2323562  43.9211088  53.5780101   4.7462272  45.8300779  59.6704421
   5.1301652  46.3987677  59.1309196   4.6821414  45.1050289  59.1910237
   4.7935700  45.8076242  59.5198284   8.2143702  35.9790467  65.1802183
   8.7599662  36.6575553  65.2396152   8.1560579  35.8377927  64.3203764
   8.2859617  36.0582468  65.0614243   1.3317777  43.4679533  60.5670535
   1.4328140  42.6579887  60.8767663   0.7359523  43.3736479  59.9370214
   1.2590316  43.3344561  60.5196773   9.9908771  37.4075074  56.0535910
   9.8748297  38.1582760  56.4828048  10.7864658  37.1499027  56.3031997
  10.0913361  37.4809921  56.1540002   1.8739097  41.3969097  57.3405253
   2.1954938  41.9374304  56.7366561   2.5211193  40.8265868  57.4727543
   2.0165152  41.3928272  57.2712288   3.9240805  33.3985092  57.4239640
   4.6220969  33.5773219  57.9161103   4.2393137  32.8755431  56.8010029
   4.0736142  33.3478864  57.4041650   4.1128740  39.7855537  57.4119431
   4.5522376  39.1772637  57.8574204   3.9633403  39.4062910  56.6404896
   4.1550206  39.6394008  57.3638598   1.5800383  38.3799548  64.6138256
   2.2249386  37.8871992  64.2949205   1.8202160  38.5224335  65.4404335
   1.7110968  38.3276991  64.6887790   4.1186474  41.2254454  64.2645149
   4.4009717  40.4305860  64.0431905   4.8472635  41.7035042  64.2850210
   4.2676038  41.1789051  64.2348164   7.7138077  38.1382718  54.3650200
   7.6289372  38.9943685  54.5099769   8.2022460  37.8627042  55.0332359
   7.7726974  38.2240039  54.4852282   9.3044076  24.7563011  59.7510525
   8.9897517  25.4466490  60.1830947   8.7871018  24.7007793  59.0496025
   9.1808546  24.8497900  59.7107474   8.6456510  34.7567512  55.8647935
   8.1167981  34.9727146  56.5245242   9.1681530  35.4503651  55.7848905
   8.6444963  34.8910649  55.9503535  14.1004563  40.3313817  61.2380980
  13.2702266  40.5424460  61.4014396  14.0513815  39.5050871  60.9623263
  13.9711298  40.2403423  61.2218345   4.9933332  34.8996381  53.1424324
   5.2329336  35.1074365  52.3299667   5.3149173  34.0953890  53.2513268
   5.0770490  34.8110482  53.0384877  13.5958521  32.9784217  65.0331401
  12.7586942  33.0486404  65.2678996  13.5646752  32.9808712  64.1605703
  13.4676803  32.9894444  64.9390949   4.3380406  26.2386506  56.7210999
   5.0666567  26.0602461  56.2749155   4.4275299  27.0804586  56.9318177
   4.4587068  26.3370385  56.6864516   8.3188707  37.1739894  60.6243293
   9.0746222  37.6071408  60.6632201   8.4251031  36.5244663  61.1977929
   8.4458877  37.1417378  60.7141318  11.3568878  41.0013171  61.3745696
  10.9204110  41.0049913  62.1304667  11.0231793  41.6818670  60.9425273
  11.2431498  41.1025627  61.4226528  11.2766361  28.0426999  63.6175124
  11.9192269  28.1125103  64.2037039  11.5289382  27.3756222  63.1154665
  11.4088493  27.9553347  63.6302403  14.4913224  37.7194091  60.2665333
  15.1529658  37.1584759  60.1661241  13.8504636  37.2246122  60.5918024
  14.4942092  37.5630500  60.2997673   5.3790032  41.0164222  52.5746256
   5.7941180  40.6849246  51.8830752   4.5481962  40.7833124  52.4466393
   5.3178041  40.9335478  52.4537103  10.7778055  38.7359473  60.0077322
  11.0133644  38.8804672  59.1804172  10.9267619  39.5001881  60.4008835
  10.8343858  38.8698528  59.9440925  12.6068512  37.5761139  57.8446925
  12.9376729  38.1088779  57.2387020  13.1801600  37.6300027  58.5008876
  12.7402191  37.6630708  57.8524707   7.8200401  35.4226042  58.5270506
   7.9147255  36.1615336  58.9810131   7.1959244  34.9943517  58.9605070
   7.7409431  35.4687362  58.6578653   8.0723422  37.2674782  51.7607458
   7.9903585  37.3376969  52.6262445   8.7103143  37.8304526  51.5691198
   8.1543259  37.3613753  51.8597407   1.4316593  37.0335520  61.2281984
   1.1735837  36.2007254  61.2013283   1.4865076  37.2593133  60.3874484
   1.4016371  36.9433291  61.1002121   6.5117643  29.1363970  61.3286076
   5.8073970  28.6473156  61.4869996   6.5602618  29.1486445  60.4574521
   6.4147695  29.0653618  61.2225416  13.7147863  32.8171636  59.3487087
  13.4584428  32.0051578  59.1584970  14.5577177  32.8249203  59.1217274
  13.8013889  32.6983634  59.2871904   5.1763532  37.2895236  54.7716064
   5.9904171  37.5810129  54.6598835   5.1122674  36.6355098  54.1974357
   5.2866271  37.2360431  54.6704901  11.3973022  39.9721232  69.1845640
  11.1611660  39.1409297  69.0657700  12.0416251  39.9206839  69.7700484
  11.4567693  39.8418920  69.2531533   1.0471441  40.7616753  59.8988376
   1.6845387  40.5228501  60.4440169   1.4726512  40.9653912  59.1641537
   1.2047607  40.7567764  59.8705533   1.6874256  35.9819043  54.2363265
   2.0719408  35.7626750  54.9879811   1.4385876  36.8081989  54.3664342
   1.7076328  36.0717189  54.3664342  12.4209443  39.7565681  65.2473934
  12.1155260  40.4893738  65.6087250  11.7015659  39.3503610  64.9666720
  12.2696785  39.8047414  65.2587071   3.4292912  41.2389176  61.5782162
   3.5031921  41.0764348  62.4324012   4.2462419  41.4279366  61.3342644
   3.5609271  41.2425918  61.6680188  18.1211235  36.3958682  64.5742278
  18.0535735  36.4154641  63.7044865  18.1066898  37.2389009  64.7997949
  18.1089992  36.5232416  64.4794755   1.9697498  44.2023919  56.3095636
   2.2595797  43.8112900  55.5854862   2.7000979  44.3840624  56.7500911
   2.1204382  44.1717733  56.2678443  15.9069853  35.1703068  62.8488873
  16.4577774  34.5371137  63.0885965  15.8913968  35.7018461  63.5404377
  15.9855049  35.1552016  62.9867731   9.6098259  33.4099401  61.9593469
   9.2663025  32.6889737  62.3100719   9.7091301  33.2013253  61.1171827
   9.5740302  33.2723605  61.8865149   2.0771369  47.5520691  58.1586478
   2.7295428  47.0197134  58.3877504   1.3796978  47.1989344  58.5454352
   2.0702087  47.4210214  58.2498646  10.0711288  39.8725105  57.5017457
  10.6369320  40.5318315  57.4176000   9.4239191  40.2174804  57.9733859
  10.0590044  40.0207047  57.5590214   6.5417866  42.8163890  56.9254536
   6.3004542  42.0831750  56.5181601   6.7219199  43.3650747  56.2720870
   6.5325490  42.7886281  56.7684759   1.7717187  38.1072449  58.3375459
   1.5759969  38.7147184  57.7435762   1.9951532  37.4140393  57.8567133
   1.7751828  38.0949975  58.1791539   8.1289224  31.3290986  63.8353012
   7.2900325  31.3552265  63.5991275   8.1993591  31.9761722  64.4158359
   8.0157618  31.4287112  63.8862129   6.5758502  28.2276363  58.5680628
   7.2784855  28.0284111  58.0900586   6.3102691  27.4552306  58.8749471
   6.6405135  28.0839329  58.5426069  12.0046748  36.5358973  61.1214254
  11.9180723  36.6914399  61.9749032  11.5497228  37.1797048  60.7473659
  11.9250005  36.6534728  61.1921360   5.8772564  33.8569720  59.7439813
   5.6307278  33.7765471  60.5776602   6.2057687  33.0723188  59.5502341
   5.8893808  33.7295985  59.8387336   9.7720613  40.5653079  63.5326594
   9.6334972  41.2634125  64.0375337   8.9920611  40.4101736  63.1762776
   9.6363840  40.6453246  63.5552869  11.2673986  39.9231333  54.2943094
  10.8880794  39.1368471  54.2872383  10.6040231  40.4718190  54.1514738
  11.1132460  39.8876157  54.2723891   4.0920894  43.4744852  58.1331920
   4.8570785  43.2054496  57.8114584   3.9898984  42.9894863  58.8501983
   4.1902389  43.3634417  58.1911747   6.6139554  40.5057036  50.1131869
   7.3812540  40.5657161  49.7037721   6.1670863  39.9337477  49.6288188
   6.6612982  40.4293612  49.9809580   7.5117350  39.3111692  62.3984602
   6.8362352  39.0796924  62.8997989   7.5209726  38.7032875  61.7726707
   7.4135854  39.1870617  62.3800754   9.5134084  42.1676824  54.6294779
   9.5953922  42.9743810  54.3056230   9.9983827  42.1872783  55.3535553
   9.5971242  42.2897487  54.6881678   3.3230588  36.8461660  63.2964857
   2.8992837  37.0466159  62.5603876   3.1475443  35.9990508  63.4089157
   3.2341468  36.7510442  63.2038548   5.1492177  36.7171595  57.5986193
   5.6907723  36.2141976  58.0624814   5.4638736  36.6636790  56.7875678
   5.2756574  36.6351016  57.5470005   3.3178627  42.1088947  54.8826221
   3.3871447  41.2503485  55.0219222   4.0967082  42.3260828  54.5545246
   3.4431477  42.0141811  54.8543378   7.7086115  44.5326648  59.0962714
   7.3165906  44.2293363  58.3785581   7.8639187  45.3695738  58.9067668
   7.6739705  44.6110485  58.9619212   7.8725789  41.0976637  59.0368745
   7.5140444  41.2691280  59.8132777   7.3864500  41.5589842  58.4796744
   7.7484486  41.1915608  59.0694014   2.6614155  36.7775802  51.5768979
   2.9506680  37.5540685  51.8512554   2.7485954  36.2664534  52.2783479
   2.7168411  36.8167721  51.7211477  10.7587529  33.8369679  64.5501862
  10.3315137  33.7496027  63.7949961  10.1213582  33.9447454  65.1356706
  10.6017136  33.8402339  64.5247303   9.0884785  42.6800341  66.6241303
   9.8777164  42.3289406  66.7443384   9.2628383  43.4936729  66.3617936
   9.2305067  42.7486198  66.6029171   7.9418610  26.6909898  61.1857721
   8.1468203  26.6232206  62.0314718   7.6145034  27.4968719  61.1178898
   7.9233857  26.7995838  61.3017376   2.6394761  34.0190466  62.9266689
   2.3357898  33.4646454  63.5277097   1.9374181  34.1982676  62.4394723
   2.4910970  33.9635248  62.9436395   1.6960858  31.3290986  57.4911391
   1.9720592  30.6109898  57.0788958   2.2959527  31.9275906  57.2832497
   1.8254122  31.3111356  57.3992152  11.1952297  27.2441662  60.6660487
  10.5826611  27.7312064  61.0514218  11.2916472  26.5685153  61.2098138
  11.1190195  27.2159971  60.8039345   5.1971378  29.0004503  55.7657986
   5.6515125  29.1715064  56.4905830   5.6711424  28.3872614  55.3655762
   5.3339698  28.9355388  55.8131747  14.8377325  38.3158599  66.0938003
  14.8960449  38.7645248  66.8397979  14.2043793  38.7257412  65.6568083
  14.7528620  38.4432333  66.1390551   8.4776420  43.9362141  62.5292749
   8.2796109  44.4252955  61.8348960   7.8564131  44.1403382  63.1076882
   8.3563984  44.0378679  62.5115972   2.5384398  35.7047037  56.8702993
   3.2826443  36.0921314  57.1085943   2.6845094  34.8604463  57.0343481
   2.6694983  35.6377510  56.9296963   5.5262274  31.2772511  62.7696912
   5.0522228  30.7514273  63.2802223   5.8980410  30.7301984  62.2011774
   5.5112163  31.1188507  62.7612060  11.7899005  36.3374886  64.1803693
  11.5497228  35.4981302  64.1846119  12.2691012  36.4175053  64.9044466
  11.8251188  36.2256286  64.2878495   7.4545774  32.1709065  55.8322666
   6.9268792  32.2537809  55.1428375   7.9141482  32.9126937  55.8287311
   7.4447624  32.2929728  55.7297361  13.7904192  33.1176344  62.1332952
  13.5513962  33.0772178  61.2953737  13.9538093  33.9647496  62.2598673
  13.7794495  33.2368429  62.0286434  10.3950222  37.5026293  68.0637997
  11.1184421  37.0498819  67.8849017  10.1300184  37.7830959  67.2810325
  10.4631495  37.4777261  67.9216713   7.0082856  40.7412629  54.9632323
   7.7317055  41.2070742  54.8196897   6.5683447  40.8086239  54.2129920
   7.0498548  40.8196466  54.8317105   6.1769011  37.6010171  66.2133012
   5.5626004  37.0568221  66.5081648   6.6936296  37.0874408  65.7338828
   6.1624674  37.4446580  66.1857241   5.4165309  38.6714441  63.9477311
   4.9892917  38.0464160  63.5142746   5.4090253  38.3889363  64.7736318
   5.3524450  38.5367222  64.0057138  12.8285536  36.4652704  66.5668547
  13.4203376  37.1049954  66.5986745  13.2644530  35.7675740  66.8560614
  12.9803967  36.4571054  66.6149380   1.4281953  29.8651202  53.6727625
   1.7497794  29.3854284  53.0186887   1.6908897  30.6750848  53.4818436
   1.5147978  29.9141100  53.5483117   7.2686706  44.8033334  55.1230384
   6.5516016  44.6294196  54.6577622   7.9193444  44.5685906  54.5905870
   7.2588556  44.7429126  54.9759602   5.2635331  25.7238496  59.4441681
   4.6203649  25.5736142  60.0126819   4.9234738  25.4780841  58.6790785
   5.1180408  25.6650618  59.4144696   9.8534677  33.6797922  58.8671689
   9.1825867  34.2227625  58.7384755  10.5474427  34.1492778  58.6253384
   9.8563545  33.8296194  58.8127217  10.0162805  30.1353806  61.7762063
  10.3690415  29.7083529  62.4507861   9.1577606  30.0504650  61.9063139
   9.9412249  30.0598547  61.8957073   8.0146070  33.3989175  65.7246905
   7.9943998  33.2172470  66.5781684   8.0625271  34.2701193  65.7006489
   8.0180711  33.5005713  65.8470200   2.5499868  46.0395093  61.5520532
   2.1360266  45.3769223  61.1624374   3.2347242  46.1872951  61.0316227
   2.5898240  45.9635751  61.4177030   5.9165162  45.1985178  62.3044149
   5.5181445  45.3087448  61.5364969   5.3016382  45.4067244  62.8870709
   5.7664051  45.2458746  62.2775448   4.4893064  31.8059326  55.1718289
   3.8957903  32.1276322  54.6202856   4.5268342  30.9600421  54.9639395
   4.4067453  31.7283654  55.0601060  11.4486865  25.2572218  62.7046375
  10.9417729  24.5501357  62.6367553  12.2454298  24.9265407  62.8347452
  11.4914104  25.1045369  62.7145370   7.3650881  31.7638830  58.6020039
   7.1364574  31.7871532  57.7598397   7.6248957  30.9396297  58.7215049
   7.3697069  31.6454910  58.4945237  13.6507005  39.7737144  55.6887240
  14.0340610  40.5228501  55.9185337  12.8551118  40.0202964  55.4299229
  13.5900787  39.9206838  55.6844813   2.4622296  32.4456576  53.2647619
   2.8421261  32.4636205  52.4798733   1.7214892  32.8910565  53.1438466
   2.4091134  32.5138351  53.1311187  10.0907587  30.7538767  58.8523197
  10.0901813  30.5987424  59.7107474   9.8863767  31.6001754  58.7964583
  10.0607365  30.8559388  58.9711137   7.8148439  35.4336269  62.5059404
   8.3102104  34.7159264  62.4663424   7.0048215  35.1307067  62.3913891
   7.7692332  35.2833915  62.4833130   3.2607050  39.2834082  54.6556409
   2.4518373  38.9600756  54.6089718   3.7681959  38.5767305  54.5884657
   3.2156717  39.1315399  54.6386703   9.8800258  38.1839957  65.1936533
  10.3055329  37.6614379  64.6406958   9.5157178  38.7820794  64.6725156
   9.8886860  38.1950184  65.0345543   6.4678857  41.8974221  61.5237690
   6.9390035  42.6114484  61.6927676   6.8039036  41.2972971  62.0597560
   6.5873972  41.9145685  61.6270066   9.9146668  29.7577510  65.6716575
   9.3309657  30.2586716  65.2594143  10.2350962  29.2507066  65.0380899
   9.8759843  29.7569345  65.5175082   2.4541467  28.6718104  55.9475250
   3.2757161  28.8416417  55.7056945   1.9911118  28.8265365  55.2241548
   2.5072629  28.7199837  55.8046894   6.6711130  42.6943228  64.8174724
   7.4909504  42.5506194  65.0791019   6.3905207  43.3189427  65.3591162
   6.7507873  42.7653580  64.9362664  23.1424780  50.3508079  57.7817600
  23.1118784  51.2052716  57.9535870  23.7406129  50.0503372  58.3403744
  23.2261938  50.4324576  57.8892403  16.3424465  49.4383731  62.5370531
  15.4862360  49.5992229  62.5879648  16.3892119  48.5675794  62.5575592
  16.2223576  49.3334532  62.5476597  10.7265605  58.9746448  58.3007763
   9.9748504  58.5961987  58.0723808  11.1751616  59.0064882  57.5526573
  10.6815272  58.9232056  58.1565265  16.1790565  59.3971818  53.7293310
  15.8441933  60.0748739  53.2937532  16.6917435  59.0077129  53.1410181
  16.2056146  59.4396396  53.5780101  15.7194856  61.3486087  59.6704421
  16.1034235  61.9172985  59.1309196  15.6553997  60.6235597  59.1910237
  15.7668283  61.3261550  59.5198284  19.1876286  51.4975774  65.1802183
  19.7332246  52.1760861  65.2396152  19.1293162  51.3563235  64.3203764
  19.2592200  51.5767776  65.0614243  12.3050361  58.9864841  60.5670535
  12.4060724  58.1765194  60.8767663  11.7092106  58.8921787  59.9370214
  12.2322900  58.8529869  60.5196773  20.9641355  52.9260382  56.0535910
  20.8480881  53.6768068  56.4828048  21.7597241  52.6684335  56.3031997
  21.0645944  52.9995228  56.1540002   7.8005493  47.1770858  63.0907176
   7.1810524  46.5863505  62.9217191   7.6989356  47.7682293  62.4571500
   7.6943168  47.1774940  62.9712166  12.8471680  56.9154405  57.3405253
  13.1687521  57.4559612  56.7366561  13.4943777  56.3451176  57.4727543
  12.9897735  56.9113580  57.2712288  14.8973388  48.9170399  57.4239640
  15.5953553  49.0958527  57.9161103  15.2125721  48.3940739  56.8010029
  15.0468725  48.8664172  57.4041650  15.0861324  55.3040845  57.4119431
  15.5254959  54.6957945  57.8574204  14.9365987  54.9248218  56.6404896
  15.1282789  55.1579316  57.3638598  12.5532967  53.8984856  64.6138256
  13.1981969  53.4057299  64.2949205  12.7934744  54.0409643  65.4404335
  12.6843552  53.8462299  64.6887790  15.0919058  56.7439762  64.2645149
  15.3742301  55.9491168  64.0431905  15.8205218  57.2220350  64.2850210
  15.2408622  56.6974359  64.2348164  13.0700252  44.2862796  61.5060914
  12.7403582  44.7373940  60.8364613  12.3945254  44.2078960  62.0533921
  12.9210688  44.3413931  61.4884137  18.6870660  53.6568026  54.3650200
  18.6021955  54.5128992  54.5099769  19.1755043  53.3812350  55.0332359
  18.7459557  53.7425347  54.4852282  20.2776660  40.2748319  59.7510525
  19.9630101  40.9651798  60.1830947  19.7603601  40.2193101  59.0496025
  20.1541130  40.3683208  59.7107474  19.6189093  50.2752820  55.8647935
  19.0900565  50.4912454  56.5245242  20.1414113  50.9688958  55.7848905
  19.6177546  50.4095957  55.9503535  25.0737146  55.8499124  61.2380980
  24.2434849  56.0609768  61.4014396  25.0246399  55.0236179  60.9623263
  24.9443882  55.7588731  61.2218345  11.5088701  54.1716037  54.6655403
  10.9245916  54.6766068  55.0721267  11.1058796  53.9458424  53.9251995
  11.3628005  54.2124285  54.6160429  15.9665916  50.4181689  53.1424324
  16.2061919  50.6259673  52.3299667  16.2881757  49.6139198  53.2513268
  16.0503074  50.3295790  53.0384877  11.2756206  42.3475085  56.9883862
  12.0302174  42.7153402  56.7500912  11.0983740  42.7214639  57.7563041
  11.3610684  42.4573272  57.0668750  24.5691105  48.4969525  65.0331401
  23.7319526  48.5671712  65.2678996  24.5379336  48.4994020  64.1605703
  24.4409387  48.5079752  64.9390949   9.6313271  44.7545404  53.6861975
   9.4488844  44.9717284  52.8602968  10.4938884  44.8684416  53.7420589
   9.7317860  44.8035301  53.5716462   9.2427703  56.5933326  61.1284963
  10.0816602  56.8256259  61.1758724   9.2739472  55.7237637  61.0591998
   9.3709420  56.4990272  61.1249607  15.3112990  41.7571814  56.7210999
  16.0399150  41.5787769  56.2749155  15.4007883  42.5989894  56.9318177
  15.4319652  41.8555693  56.6864516  19.2921290  52.6925202  60.6243293
  20.0478805  53.1256716  60.6632201  19.3983615  52.0429971  61.1977929
  19.4191461  52.6602685  60.7141318  22.3301462  56.5198479  61.3745696
  21.8936693  56.5235221  62.1304667  21.9964377  57.2003978  60.9425273
  22.2164081  56.6210935  61.4226528  22.2498944  43.5612307  63.6175124
  22.8924853  43.6310411  64.2037039  22.5021965  42.8941530  63.1154665
  22.3821077  43.4738655  63.6302403   9.1775298  48.0319576  52.1984448
   8.4633475  47.7457756  52.6106880   9.6619266  48.3716202  52.8390835
   9.1434661  48.0401226  52.3540083  25.4645808  53.2379399  60.2665333
  26.1262242  52.6770067  60.1661241  24.8237220  52.7431429  60.5918024
  25.4674675  53.0815808  60.2997673  16.3522615  56.5349530  52.5746256
  16.7673764  56.2034554  51.8830752  15.5214545  56.3018432  52.4466393
  16.2910624  56.4520786  52.4537103  21.7510638  54.2544781  60.0077322
  21.9866228  54.3989980  59.1804172  21.9000202  55.0187189  60.4008835
  21.8076442  54.3883836  59.9440925  23.5801095  53.0946447  57.8446925
  23.9109312  53.6274087  57.2387020  24.1534183  53.1485335  58.5008876
  23.7134774  53.1816016  57.8524707  18.7932984  50.9411350  58.5270506
  18.8879839  51.6800644  58.9810131  18.1691828  50.5128825  58.9605070
  18.7142014  50.9872670  58.6578653  19.0456006  52.7860090  51.7607458
  18.9636168  52.8562277  52.6262445  19.6835726  53.3489834  51.5691198
  19.1275843  52.8799061  51.8597407  12.4049177  52.5520828  61.2281984
  12.1468421  51.7192562  61.2013283  12.4597660  52.7778441  60.3874484
  12.3748955  52.4618599  61.1002121  17.4850227  44.6549278  61.3286076
  16.7806554  44.1658464  61.4869996  17.5335201  44.6671753  60.4574521
  17.3880278  44.5838926  61.2225416  11.3783889  50.1058590  61.7146879
  10.8033480  50.2650758  62.3510840  11.0019565  49.4693999  61.2515329
  11.2386701  50.0356403  61.7401437  15.0457178  48.5781939  66.5739257
  14.6571610  48.1536157  65.9191448  14.3811876  48.8264089  67.0816284
  14.8904105  48.5520660  66.5527125  24.6880447  48.3356944  59.3487087
  24.4317012  47.5236885  59.1584970  25.5309761  48.3434511  59.1217274
  24.7746472  48.2168941  59.2871904  18.8683539  42.2756568  64.0863241
  19.2494051  41.5934739  64.4731115  18.0646823  41.9866170  63.9038906
  18.8060001  42.1323617  64.1167297  16.1496116  52.8080544  54.7716064
  16.9636755  53.0995437  54.6598835  16.0855257  52.1540406  54.1974357
  16.2598855  52.7545739  54.6704901  22.3705606  55.4906540  69.1845640
  22.1344243  54.6594605  69.0657700  23.0148835  55.4392147  69.7700484
  22.4300277  55.3604228  69.2531533  12.0204024  56.2802061  59.8988376
  12.6577971  56.0413809  60.4440169  12.4459096  56.4839220  59.1641537
  12.1780190  56.2753072  59.8705533  12.6606839  51.5004351  54.2363265
  13.0451992  51.2812058  54.9879811  12.4118459  52.3267297  54.3664342
  12.6808912  51.5902497  54.3664342  23.3942027  55.2750989  65.2473934
  23.0887844  56.0079046  65.6087250  22.6748242  54.8688918  64.9666720
  23.2429369  55.3232722  65.2587071  14.4025496  56.7574484  61.5782162
  14.4764504  56.5949656  62.4324012  15.2195002  56.9464674  61.3342644
  14.5341855  56.7611226  61.6680188  29.0943819  51.9143989  64.5742278
  29.0268319  51.9339949  63.7044865  29.0799481  52.7574317  64.7997949
  29.0822575  52.0417724  64.4794755   8.1631253  57.1032347  58.6076606
   7.3369370  57.3494084  58.4810885   8.2243244  57.0244428  59.4738664
   8.0505420  57.1277296  58.7165550  10.3807276  43.1701288  59.5672046
   9.5129702  43.2423887  59.6329655  10.6682481  43.9723367  59.7560021
  10.2947025  43.2995435  59.6046813  19.5040165  43.3179147  67.8983368
  20.2493757  43.1288958  67.4846793  19.0877470  43.8437385  67.3397224
  19.5525139  43.3681293  67.7547941  12.9430082  59.7209227  56.3095636
  13.2328380  59.3298208  55.5854862  13.6733563  59.9025932  56.7500911
  13.0936966  59.6903041  56.2678443  26.8802436  50.6888376  62.8488873
  27.4310358  50.0556445  63.0885965  26.8646551  51.2203768  63.5404377
  26.9587632  50.6737324  62.9867731   9.7952945  53.7849926  61.6411487
   9.5066193  53.1587397  62.1757214  10.6636293  53.7270213  61.7076168
   9.8813196  53.6837470  61.7302442  20.5830842  48.9284709  61.9593469
  20.2395608  48.2075045  62.3100719  20.6823885  48.7198561  61.1171827
  20.5472885  48.7908913  61.8865149  13.0503953  63.0705999  58.1586478
  13.7028011  62.5382442  58.3877504  12.3529562  62.7174652  58.5454352
  13.0434671  62.9395522  58.2498646   9.9985218  55.4245177  57.5653852
  10.7531186  55.8058216  57.7789315   9.4055831  55.8756321  58.0200549
  10.0221931  55.5474004  57.6636731  21.0443871  55.3910413  57.5017457
  21.6101904  56.0503623  57.4176000  20.3971775  55.7360111  57.9733859
  21.0322628  55.5392355  57.5590214   8.3074629  46.6459547  57.0088922
   8.0199424  46.2760818  56.2720870   8.9945097  47.1154402  56.7472627
   8.3663526  46.6606516  56.8603998  17.5150449  58.3349198  56.9254536
  17.2737125  57.6017058  56.5181601  17.6951782  58.8836055  56.2720870
  17.5058073  58.3071589  56.7684759  12.7449770  53.6257757  58.3375459
  12.5492553  54.2332492  57.7435762  12.9684116  52.9325701  57.8567133
  12.7484411  53.6135283  58.1791539  11.1428300  50.5112495  58.4556327
  11.8650952  50.6753653  57.9960133  10.6636293  51.2322160  58.3495667
  11.1792031  50.6410725  58.3721941  19.1021808  46.8476294  63.8353012
  18.2632908  46.8737573  63.5991275  19.1726175  47.4947030  64.4158359
  18.9890201  46.9472420  63.8862129  17.5491086  43.7461671  58.5680628
  18.2517439  43.5469419  58.0900586  17.2835275  42.9737613  58.8749471
  17.6137718  43.6024637  58.5426069  22.9779332  52.0544281  61.1214254
  22.8913306  52.2099707  61.9749032  22.5229811  52.6982356  60.7473659
  22.8982588  52.1720036  61.1921360   5.8802823  47.4240760  57.8574203
   5.9818960  48.2266921  58.1855179   6.6758710  47.2228095  57.5597284
   6.0130729  47.5126658  57.8609559  12.3119642  45.0096956  67.6211508
  12.1202839  45.0252091  68.4710932  13.1618238  45.2060631  67.5978163
  12.4095364  45.0411307  67.7434803  16.8505148  49.3755028  59.7439813
  16.6039862  49.2950779  60.5776602  17.1790271  48.5908496  59.5502341
  16.8626391  49.2481293  59.8387336  20.7453196  56.0838387  63.5326594
  20.6067556  56.7819433  64.0375337  19.9653194  55.9287044  63.1762776
  20.6096423  56.1638554  63.5552869  19.0831282  52.3834763  69.7848976
  19.0779320  51.5114579  69.7891403  19.7892275  52.5822932  69.3118432
  19.1876286  52.2838637  69.7156011  14.9822092  51.3101915  66.9387928
  14.2345406  51.5032929  66.5336206  15.1363617  50.4847134  66.7012049
  14.8944520  51.2167026  66.8433334  22.2406569  55.4416641  54.2943094
  21.8613378  54.6553779  54.2872383  21.5772815  55.9903498  54.1514738
  22.0865044  55.4061465  54.2723891  15.2223869  45.2052466  67.8283332
  15.6796483  45.9376440  67.9556124  15.2980198  44.7818931  68.5870587
  15.3014839  45.2509704  67.9584408  19.6951195  38.3842341  61.6977175
  19.8134763  38.8418804  60.9644477  19.5213371  37.5787602  61.4113392
  19.6870366  38.3336113  61.5478108  15.0653477  58.9930160  58.1331920
  15.8303369  58.7239804  57.8114584  14.9631567  58.5080170  58.8501983
  15.1634973  58.8819725  58.1911747  13.1006247  47.1954570  64.6725156
  12.3102322  47.0146030  64.9942491  13.4966870  46.4181522  64.6555450
  13.0423123  47.0542030  64.7177704  17.5872138  56.0242344  50.1131869
  18.3545123  56.0842469  49.7037721  17.1403447  55.4522785  49.6288188
  17.6345565  55.9478920  49.9809580  18.4849933  54.8297000  62.3984602
  17.8094935  54.5982232  62.8997989  18.4942310  54.2218183  61.7726707
  18.3868438  54.7055925  62.3800754  15.6144077  49.6714829  69.1548655
  15.5503219  50.5324785  69.0268791  15.7541265  49.3546822  68.3544206
  15.6259548  49.7514995  69.0176867  20.4866668  57.6862132  54.6294779
  20.5686505  58.4929118  54.3056230  20.9716410  57.7058091  55.3535553
  20.5703826  57.8082794  54.6881678  14.2963171  52.3646968  63.2964857
  13.8725420  52.5651467  62.5603876  14.1208027  51.5175816  63.4089157
  14.2074052  52.2695749  63.2038548   9.5845616  52.8599019  58.7292830
   9.7410235  52.7945822  59.5848822   9.9246209  53.6347572  58.5171510
   9.6578851  52.9648218  58.8247424  16.1224761  52.2356903  57.5986193
  16.6640306  51.7327284  58.0624814  16.4371320  52.1822098  56.7875678
  16.2489158  52.1536324  57.5470005  14.2911211  57.6274255  54.8826221
  14.3604031  56.7688793  55.0219222  15.0699666  57.8446135  54.5545246
  14.4164061  57.5327119  54.8543378  17.2714030  47.1293208  67.6508494
  17.4856000  46.4904122  67.0971848  16.6547930  47.5739031  67.2216355
  17.2119360  47.1003351  67.5058925  18.6818698  60.0511956  59.0962714
  18.2898490  59.7478671  58.3785581  18.8371770  60.8881046  58.9067668
  18.6472288  60.1295793  58.9619212   6.1579878  50.0433970  59.0453597
   6.5378843  50.4618515  58.3813864   5.5835243  50.6247426  59.3522440
   6.1291203  50.1911829  58.9930338  19.4353118  48.7382273  68.5891801
  18.6229800  48.4308163  68.6704973  19.8943053  48.2581273  69.1534513
  19.3833503  48.6218765  68.6846395  18.8458373  56.6161945  59.0368745
  18.4873028  56.7876588  59.8132777  18.3597084  57.0775150  58.4796744
  18.7217070  56.7100916  59.0694014  16.6628759  40.2393143  62.6395836
  15.7922317  40.2131864  62.5929146  16.9169100  40.0670335  61.8221682
  16.5722319  40.2103287  62.5115973  13.6346738  52.2961110  51.5768979
  13.9239263  53.0725993  51.8512554  13.7218537  51.7849842  52.2783479
  13.6900995  52.3353028  51.7211477  13.6877899  42.2499372  64.0969307
  13.1716388  41.5579563  64.2220886  13.1271828  42.9170149  64.0431906
  13.5284413  42.2462629  64.1075373  15.7570133  42.7892332  65.9262159
  15.3701886  42.8141363  66.7075689  15.2703070  42.2234010  65.4736676
  15.6282642  42.7088083  65.9750063  21.7320112  49.3554987  64.5501862
  21.3047721  49.2681335  63.7949961  21.0946165  49.4632762  65.1356706
  21.5749720  49.3587646  64.5247303  15.4227275  39.6759317  68.2172419
  16.0520393  40.2119617  67.9393490  15.5913137  39.5836676  69.0685985
  15.5405069  39.7420679  68.3020947  15.2241190  44.4630512  70.4898831
  16.0514619  44.1915661  70.5457445  15.2449036  45.2591354  70.8462649
  15.3494040  44.5410266  70.5514014  20.0617369  58.1985649  66.6241303
  20.8509747  57.8474714  66.7443384  20.2360967  59.0122037  66.3617936
  20.2037651  58.2671506  66.6029171   9.8010679  51.6094375  63.6769091
   8.9598686  51.5098249  63.8847985  10.0100687  52.3789855  64.0283412
   9.7075372  51.7086418  63.7596406   7.2786246  49.2313912  61.5053842
   6.8842944  49.3056923  60.7303952   6.7226363  49.6171858  62.0562204
   7.1389059  49.2995686  61.4721502  18.9151193  42.2095206  61.1857721
  19.1200786  42.1417514  62.0314718  18.5877617  43.0154027  61.1178898
  18.8966441  42.3181146  61.3017376  13.6127344  49.5375774  62.9266689
  13.3090482  48.9831762  63.5277097  12.9106765  49.7167984  62.4394723
  13.4643554  49.4820556  62.9436395  12.6693441  46.8476294  57.4911391
  12.9453176  46.1295206  57.0788958  13.2692111  47.4461214  57.2832497
  12.7986706  46.8296664  57.3992152  22.1684881  42.7626970  60.6660487
  21.5559194  43.2497372  61.0514218  22.2649056  42.0870461  61.2098138
  22.0922778  42.7345279  60.8039345  16.1703962  44.5189811  55.7657986
  16.6247708  44.6900371  56.4905830  16.6444008  43.9057922  55.3655762
  16.3072282  44.4540696  55.8131747  10.0880110  45.1640135  65.7628742
  10.5481592  45.2379064  66.5003866  10.1336217  45.9621389  65.4128563
  10.1630665  45.2934282  65.8201498  25.8109909  53.8343907  66.0938003
  25.8693033  54.2830555  66.8397979  25.1776376  54.2442719  65.6568083
  25.7261204  53.9617641  66.1390551  19.4509003  59.4547449  62.5292749
  19.2528692  59.9438263  61.8348960  18.8296715  59.6588690  63.1076882
  19.3296568  59.5563987  62.5115972  13.5116982  51.2232345  56.8702993
  14.2559027  51.6106622  57.1085943  13.6577678  50.3789771  57.0343481
  13.6427567  51.1562818  56.9296963  15.4296557  43.0182604  61.9034855
  14.5832602  43.1905412  61.7776204  15.4267690  42.2131948  62.2400683
  15.3043707  42.9243633  61.9345982  16.4994858  46.7957819  62.7696912
  16.0254812  46.2699581  63.2802223  16.8712993  46.2487292  62.2011774
  16.4844747  46.6373815  62.7612060  22.7631588  51.8560194  64.1803693
  22.5229811  51.0166610  64.1846119  23.2423595  51.9360361  64.9044466
  22.7983772  51.7441594  64.2878495  18.4278357  47.6894373  55.8322666
  17.9001376  47.7723117  55.1428375  18.8874065  48.4312245  55.8287311
  18.4180208  47.8115036  55.7297361  24.7636775  48.6361652  62.1332952
  24.5246545  48.5957486  61.2953737  24.9270677  49.4832804  62.2598673
  24.7527079  48.7553737  62.0286434  21.3682805  53.0211601  68.0637997
  22.0917004  52.5684127  67.8849017  21.1032768  53.3016267  67.2810325
  21.4364079  52.9962569  67.9216713  10.2369674  47.6171774  64.7990876
   9.6122744  47.6290166  64.1916829   9.9015269  48.0931950  65.4482117
  10.0955166  47.6890291  64.8047445  10.4211422  45.9596893  50.8563561
  10.0724227  46.6116618  51.3195111   9.9407868  45.9454006  50.1287433
  10.2981666  46.0539946  50.8174653  17.9815440  56.2597937  54.9632323
  18.7049639  56.7256050  54.8196897  17.5416031  56.3271546  54.2129920
  18.0231132  56.3381774  54.8317105  17.1501595  53.1195479  66.2133012
  16.5358588  52.5753529  66.5081648  17.6668880  52.6059716  65.7338828
  17.1357257  52.9631888  66.1857241  16.3897892  54.1899749  63.9477311
  15.9625500  53.5649468  63.5142746  16.3822836  53.9074671  64.7736318
  16.3257033  54.0552530  64.0057138  17.4480722  41.3926158  67.5716534
  16.9521283  41.5889832  66.8808101  18.2049784  41.7918826  67.4005336
  17.4867547  41.4803892  67.4436671  14.7183602  45.0668504  64.1619845
  14.7426089  44.5328616  63.4732625  14.9695075  44.5585813  64.8245436
  14.7593520  44.9129408  64.1584490  10.9984924  43.7939322  63.5425589
  11.0383296  44.2948529  64.2560297  10.1734589  43.8849716  63.2731512
  10.8824450  43.8821138  63.6076127  12.4199287  50.3099832  65.8399488
  11.5891217  50.4773650  65.6334736  12.3650805  49.9335783  66.6248374
  12.2888702  50.2789563  65.9248016  10.7935331  48.5855423  56.3689606
  10.9338292  49.0827888  57.0718247  11.2917864  47.8841718  56.5103820
  10.8876412  48.5557402  56.4941185  10.8235554  49.4522534  53.6982183
  11.4580633  50.0482959  53.6331645  10.9061164  49.1525992  54.5128053
  10.9292105  49.4963442  53.8085269  23.8018119  51.9838012  66.5668547
  24.3935960  52.6235262  66.5986745  24.2377114  51.2861048  66.8560614
  23.9536551  51.9756362  66.6149380  12.4014536  45.3836510  53.6727625
  12.7230378  44.9039592  53.0186887  12.6641480  46.1936156  53.4818436
  12.4880562  45.4326408  53.5483117  17.7973691  44.7708704  66.0351104
  18.2228763  44.3181230  65.4234630  17.1830685  44.2168774  66.3115891
  17.7702337  44.6222680  65.9856129   7.3288541  51.6490375  56.9671729
   7.8380771  52.2454883  57.3483034   7.8022814  51.3816349  56.2848148
   7.4731917  51.6976191  56.9226252  18.2419290  60.3218642  55.1230384
  17.5248599  60.1479504  54.6577622  18.8926027  60.0871214  54.5905870
  18.2321140  60.2614434  54.9759602  16.2367914  41.2423804  59.4441681
  15.5936232  41.0921450  60.0126819  15.8967321  40.9966149  58.6790785
  16.0912992  41.1835926  59.4144696  20.8267261  49.1983230  58.8671689
  20.1558451  49.7412933  58.7384755  21.5207011  49.6678086  58.6253384
  20.8296128  49.3481502  58.8127217  20.9895388  45.6539114  61.7762063
  21.3422998  45.2268837  62.4507861  20.1310190  45.5689957  61.9063139
  20.9144833  45.5783855  61.8957073   9.6879073  48.2846634  59.8344909
   8.9691062  48.7010766  60.1017773  10.0591436  48.8500872  59.2836547
   9.6371005  48.4295915  59.7927716  18.9878654  48.9174483  65.7246905
  18.9676581  48.7357778  66.5781684  19.0357855  49.7886501  65.7006489
  18.9913295  49.0191021  65.8470200  13.5232451  61.5580400  61.5520532
  13.1092850  60.8954531  61.1624374  14.2079826  61.7058259  61.0316227
  13.5630823  61.4821059  61.4177030  16.8897746  60.7170486  62.3044149
  16.4914029  60.8272756  61.5364969  16.2748965  60.9252552  62.8870709
  16.7396635  60.7644054  62.2775448  15.4625648  47.3244634  55.1718289
  14.8690487  47.6461630  54.6202856  15.5000925  46.4785729  54.9639395
  15.3800037  47.2468962  55.0601060  22.4219448  40.7757526  62.7046375
  21.9150313  40.0686665  62.6367553  23.2186882  40.4450715  62.8347452
  22.4646688  40.6230677  62.7145370  18.3383464  47.2824138  58.6020039
  18.1097157  47.3056839  57.7598397  18.5981540  46.4581605  58.7215049
  18.3429652  47.1640218  58.4945237  11.3928227  45.8200684  59.8974235
  11.8685593  46.1817764  59.2624416  10.8916826  46.4757152  60.1774377
  11.3893586  45.9694873  59.8450976  24.6239588  55.2922452  55.6887240
  25.0073194  56.0413809  55.9185337  23.8283702  55.5388272  55.4299229
  24.5633370  55.4392146  55.6844813  16.4971763  47.0582856  70.6447395
  17.0543193  46.8296665  70.0125860  16.1732828  47.8188521  70.3682607
  16.5318173  47.1366692  70.5103892  13.4354880  47.9641884  53.2647619
  13.8153845  47.9821513  52.4798733  12.6947476  48.4095873  53.1438466
  13.3823718  48.0323659  53.1311187  21.0640170  46.2724075  58.8523197
  21.0634397  46.1172732  59.7107474  20.8596350  47.1187062  58.7964583
  21.0339948  46.3744696  58.9711137  18.7881022  50.9521577  62.5059404
  19.2834688  50.2344572  62.4663424  17.9780798  50.6492375  62.3913891
  18.7424916  50.8019223  62.4833130  14.2339634  54.8019390  54.6556409
  13.4250957  54.4786064  54.6089718  14.7414543  54.0952612  54.5884657
  14.1889301  54.6500707  54.6386703  20.8532841  53.7025265  65.1936533
  21.2787913  53.1799686  64.6406958  20.4889761  54.3006102  64.6725156
  20.8619444  53.7135492  65.0345543  17.4411441  57.4159529  61.5237690
  17.9122619  58.1299791  61.6927676  17.7771619  56.8158279  62.0597560
  17.5606556  57.4330993  61.6270066  14.3580936  42.1886999  68.4795785
  14.4908841  41.3917993  68.8076761  14.7426088  42.7153402  69.0594061
  14.4337265  42.1486916  68.6139288  17.4313291  39.1117326  65.0776878
  16.6259255  39.0015055  65.3944717  17.3020026  39.2129781  64.2206744
  17.2933424  39.1100996  64.9984919  20.8879251  45.2762818  65.6716575
  20.3042240  45.7772024  65.2594143  21.2083545  44.7692374  65.0380899
  20.8492427  45.2754653  65.5175082  13.4274051  44.1903412  55.9475250
  14.2489745  44.3601725  55.7056945  12.9643701  44.3450673  55.2241548
  13.4805213  44.2385145  55.8046894  12.0169382  42.1846175  66.7273679
  12.5613795  41.8437301  67.3178021  12.0706318  43.0431636  66.8694963
  12.1058502  42.2601434  66.8355552  17.6443713  58.2128536  64.8174724
  18.4642087  58.0691502  65.0791019  17.3637791  58.8374735  65.3591162
  17.7240457  58.2838888  64.9362664  34.1157364  65.8693387  57.7817600
  34.0851368  66.7238024  57.9535870  34.7138712  65.5688680  58.3403744
  34.1994522  65.9509884  57.8892403  27.3157049  64.9569038  62.5370531
  26.4594944  65.1177537  62.5879648  27.3624702  64.0861102  62.5575592
  27.1956160  64.8519840  62.5476597  31.9373938  68.4445689  56.0535910
  31.8213464  69.1953376  56.4828048  32.7329825  68.1869643  56.3031997
  32.0378528  68.5180536  56.1540002  18.7738076  62.6956166  63.0907176
  18.1543108  62.1048813  62.9217191  18.6721940  63.2867601  62.4571500
  18.6675752  62.6960248  62.9712166  25.8705972  64.4355707  57.4239640
  26.5686137  64.6143835  57.9161103  26.1858304  63.9126047  56.8010029
  26.0201309  64.3849480  57.4041650  26.0593907  70.8226152  57.4119431
  26.4987543  70.2143253  57.8574204  25.9098570  70.4433526  56.6404896
  26.1015373  70.6764624  57.3638598  23.5265550  69.4170164  64.6138256
  24.1714553  68.9242607  64.2949205  23.7667327  69.5594951  65.4404335
  23.6576135  69.3647607  64.6887790  24.0432835  59.8048104  61.5060914
  23.7136165  60.2559248  60.8364613  23.3677837  59.7264267  62.0533921
  23.8943272  59.8599239  61.4884137  29.6603244  69.1753334  54.3650200
  29.5754539  70.0314300  54.5099769  30.1487627  68.8997658  55.0332359
  29.7192141  69.2610655  54.4852282  31.2509243  55.7933627  59.7510525
  30.9362684  56.4837106  60.1830947  30.7336185  55.7378409  59.0496025
  31.1273714  55.8868516  59.7107474  30.5921677  65.7938128  55.8647935
  30.0633148  66.0097761  56.5245242  31.1146697  66.4874266  55.7848905
  30.5910130  65.9281265  55.9503535  26.9398499  65.9366997  53.1424324
  27.1794503  66.1444981  52.3299667  27.2614340  65.1324505  53.2513268
  27.0235657  65.8481098  53.0384877  22.2488789  57.8660392  56.9883862
  23.0034758  58.2338710  56.7500912  22.0716324  58.2399947  57.7563041
  22.3343268  57.9758580  57.0668750  20.6045854  60.2730711  53.6861975
  20.4221427  60.4902592  52.8602968  21.4671467  60.3869724  53.7420589
  20.7050444  60.3220609  53.5716462  26.2845573  57.2757122  56.7210999
  27.0131734  57.0973077  56.2749155  26.3740466  58.1175202  56.9318177
  26.4052235  57.3741001  56.6864516  30.2653874  68.2110510  60.6243293
  31.0211389  68.6442024  60.6632201  30.3716198  67.5615279  61.1977929
  30.3924045  68.1787993  60.7141318  33.2231528  59.0797615  63.6175124
  33.8657436  59.1495719  64.2037039  33.4754549  58.4126838  63.1154665
  33.3553660  58.9923963  63.6302403  20.1507881  63.5504884  52.1984448
  19.4366058  63.2643064  52.6106880  20.6351850  63.8901510  52.8390835
  20.1167244  63.5586534  52.3540083  36.4378391  68.7564707  60.2665333
  37.0994825  68.1955375  60.1661241  35.7969803  68.2616737  60.5918024
  36.4407259  68.6001116  60.2997673  32.7243222  69.7730089  60.0077322
  32.9598811  69.9175288  59.1804172  32.8732786  70.5372497  60.4008835
  32.7809025  69.9069143  59.9440925  34.5533679  68.6131755  57.8446925
  34.8841896  69.1459395  57.2387020  35.1266767  68.6670643  58.5008876
  34.6867358  68.7001324  57.8524707  29.7665568  66.4596658  58.5270506
  29.8612422  67.1985952  58.9810131  29.1424411  66.0314133  58.9605070
  29.6874598  66.5057978  58.6578653  30.0188589  68.3045398  51.7607458
  29.9368752  68.3747585  52.6262445  30.6568310  68.8675141  51.5691198
  30.1008427  68.3984369  51.8597407  23.3781760  68.0706135  61.2281984
  23.1201005  67.2377870  61.2013283  23.4330243  68.2963748  60.3874484
  23.3481538  67.9803907  61.1002121  28.4582811  60.1734586  61.3286076
  27.7539137  59.6843772  61.4869996  28.5067785  60.1857061  60.4574521
  28.3612862  60.1024234  61.2225416  22.3516473  65.6243898  61.7146879
  21.7766064  65.7836066  62.3510840  21.9752149  64.9879307  61.2515329
  22.2119285  65.5541711  61.7401437  26.0189761  64.0967247  66.5739257
  25.6304194  63.6721465  65.9191448  25.3544459  64.3449397  67.0816284
  25.8636689  64.0705968  66.5527125  35.6613030  63.8542252  59.3487087
  35.4049595  63.0422193  59.1584970  36.5042344  63.8619819  59.1217274
  35.7479056  63.7354249  59.2871904  29.8416123  57.7941876  64.0863241
  30.2226634  57.1120047  64.4731115  29.0379407  57.5051478  63.9038906
  29.7792584  57.6508924  64.1167297  27.1228699  68.3265852  54.7716064
  27.9369338  68.6180745  54.6598835  27.0587841  67.6725714  54.1974357
  27.2331438  68.2731047  54.6704901  23.6339423  67.0189659  54.2363265
  24.0184575  66.7997366  54.9879811  23.3851043  67.8452604  54.3664342
  23.6541495  67.1087805  54.3664342  21.3539860  58.6886596  59.5672046
  20.4862286  58.7609195  59.6329655  21.6415064  59.4908675  59.7560021
  21.2679608  58.8180743  59.6046813  30.4772749  58.8364455  67.8983368
  31.2226341  58.6474265  67.4846793  30.0610053  59.3622693  67.3397224
  30.5257723  58.8866600  67.7547941  31.5563426  64.4470017  61.9593469
  31.2128192  63.7260352  62.3100719  31.6556468  64.2383868  61.1171827
  31.5205469  64.3094221  61.8865149  32.0176455  70.9095721  57.5017457
  32.5834488  71.5688931  57.4176000  31.3704358  71.2545419  57.9733859
  32.0055211  71.0577663  57.5590214  19.2807212  62.1644855  57.0088922
  18.9932008  61.7946125  56.2720870  19.9677680  62.6339710  56.7472627
  19.3396109  62.1791824  56.8603998  23.7182354  69.1443065  58.3375459
  23.5225136  69.7517800  57.7435762  23.9416699  68.4511009  57.8567133
  23.7216995  69.1320591  58.1791539  22.1160884  66.0297803  58.4556327
  22.8383536  66.1938961  57.9960133  21.6368876  66.7507468  58.3495667
  22.1524614  66.1596033  58.3721941  30.0754391  62.3661602  63.8353012
  29.2365492  62.3922881  63.5991275  30.1458759  63.0132337  64.4158359
  29.9622785  62.4657728  63.8862129  28.5223670  59.2646979  58.5680628
  29.2250022  59.0654727  58.0900586  28.2567858  58.4922921  58.8749471
  28.5870302  59.1209945  58.5426069  33.9511915  67.5729589  61.1214254
  33.8645890  67.7285015  61.9749032  33.4962395  68.2167664  60.7473659
  33.8715172  67.6905344  61.1921360  16.8535407  62.9426067  57.8574203
  16.9551543  63.7452229  58.1855179  17.6491293  62.7413403  57.5597284
  16.9863312  63.0311966  57.8609559  23.2852226  60.5282264  67.6211508
  23.0935423  60.5437399  68.4710932  24.1350822  60.7245939  67.5978163
  23.3827948  60.5596615  67.7434803  27.8237731  64.8940336  59.7439813
  27.5772445  64.8136087  60.5776602  28.1522854  64.1093804  59.5502341
  27.8358975  64.7666601  59.8387336  25.9554676  66.8287223  66.9387928
  25.2077990  67.0218237  66.5336206  26.1096201  66.0032442  66.7012049
  25.8677103  66.7352334  66.8433334  33.2139153  70.9601949  54.2943094
  32.8345962  70.1739087  54.2872383  32.5505398  71.5088806  54.1514738
  33.0597628  70.9246773  54.2723891  26.1956453  60.7237774  67.8283332
  26.6529067  61.4561748  67.9556124  26.2712782  60.3004239  68.5870587
  26.2747423  60.7695012  67.9584408  30.6683779  53.9027649  61.6977175
  30.7867347  54.3604112  60.9644477  30.4945955  53.0972910  61.4113392
  30.6602950  53.8521421  61.5478108  24.0738831  62.7139878  64.6725156
  23.2834906  62.5331338  64.9942491  24.4699454  61.9366830  64.6555450
  24.0155707  62.5727338  64.7177704  28.5604722  71.5427652  50.1131869
  29.3277707  71.6027777  49.7037721  28.1136031  70.9708093  49.6288188
  28.6078149  71.4664228  49.9809580  29.4582517  70.3482308  62.3984602
  28.7827519  70.1167540  62.8997989  29.4674893  69.7403491  61.7726707
  29.3601022  70.2241233  62.3800754  25.2695755  67.8832276  63.2964857
  24.8458004  68.0836775  62.5603876  25.0940610  67.0361124  63.4089157
  25.1806636  67.7881057  63.2038548  27.0957345  67.7542211  57.5986193
  27.6372890  67.2512592  58.0624814  27.4103904  67.7007406  56.7875678
  27.2221742  67.6721632  57.5470005  28.2446614  62.6478515  67.6508494
  28.4588583  62.0089430  67.0971848  27.6280513  63.0924339  67.2216355
  28.1851943  62.6188659  67.5058925  17.1312461  65.5619278  59.0453597
  17.5111426  65.9803823  58.3813864  16.5567826  66.1432734  59.3522440
  17.1023786  65.7097137  58.9930338  27.6361343  55.7578451  62.6395836
  26.7654901  55.7317172  62.5929146  27.8901684  55.5855643  61.8221682
  27.5454903  55.7288595  62.5115973  24.6079322  67.8146418  51.5768979
  24.8971847  68.5911301  51.8512554  24.6951121  67.3035149  52.2783479
  24.6633578  67.8538336  51.7211477  24.6610483  57.7684680  64.0969307
  24.1448972  57.0764871  64.2220886  24.1004412  58.4355457  64.0431906
  24.5016996  57.7647937  64.1075373  26.7302717  58.3077640  65.9262159
  26.3434470  58.3326671  66.7075689  26.2435654  57.7419318  65.4736676
  26.6015225  58.2273390  65.9750063  32.7052696  64.8740295  64.5501862
  32.2780304  64.7866643  63.7949961  32.0678749  64.9818070  65.1356706
  32.5482303  64.8772954  64.5247303  26.3959858  55.1944625  68.2172419
  27.0252976  55.7304925  67.9393490  26.5645721  55.1021984  69.0685985
  26.5137653  55.2605987  68.3020947  20.7743263  67.1279683  63.6769091
  19.9331270  67.0283557  63.8847985  20.9833271  67.8975163  64.0283412
  20.6807956  67.2271726  63.7596406  18.2518830  64.7499220  61.5053842
  17.8575528  64.8242231  60.7303952  17.6958947  65.1357166  62.0562204
  18.1121642  64.8180994  61.4721502  29.8883777  57.7280514  61.1857721
  30.0933370  57.6602821  62.0314718  29.5610201  58.5339335  61.1178898
  29.8699025  57.8366454  61.3017376  24.5859928  65.0561082  62.9266689
  24.2823065  64.5017070  63.5277097  23.8839349  65.2353292  62.4394723
  24.4376138  65.0005864  62.9436395  23.6426025  62.3661602  57.4911391
  23.9185759  61.6480514  57.0788958  24.2424694  62.9646522  57.2832497
  23.7719290  62.3481972  57.3992152  33.1417464  58.2812278  60.6660487
  32.5291778  58.7682680  61.0514218  33.2381639  57.6055769  61.2098138
  33.0655362  58.2530587  60.8039345  27.1436545  60.0375119  55.7657986
  27.5980292  60.2085679  56.4905830  27.6176591  59.4243230  55.3655762
  27.2804866  59.9726004  55.8131747  21.0612694  60.6825443  65.7628742
  21.5214175  60.7564372  66.5003866  21.1068800  61.4806697  65.4128563
  21.1363249  60.8119590  65.8201498  24.4849565  66.7417653  56.8702993
  25.2291610  67.1291930  57.1085943  24.6310262  65.8975079  57.0343481
  24.6160151  66.6748126  56.9296963  26.4029141  58.5367912  61.9034855
  25.5565186  58.7090720  61.7776204  26.4000273  57.7317256  62.2400683
  26.2776291  58.4428941  61.9345982  27.4727441  62.3143127  62.7696912
  26.9987396  61.7884889  63.2802223  27.8445577  61.7672599  62.2011774
  27.4577330  62.1559123  62.7612060  29.4010941  63.2079681  55.8322666
  28.8733960  63.2908425  55.1428375  29.8606649  63.9497553  55.8287311
  29.3912791  63.3300344  55.7297361  35.7369359  64.1546960  62.1332952
  35.4979129  64.1142794  61.2953737  35.9003260  65.0018112  62.2598673
  35.7259662  64.2739045  62.0286434  21.2102257  63.1357082  64.7990876
  20.5855328  63.1475474  64.1916829  20.8747852  63.6117257  65.4482117
  21.0687749  63.2075599  64.8047445  21.3944006  61.4782201  50.8563561
  21.0456810  62.1301926  51.3195111  20.9140452  61.4639314  50.1287433
  21.2714250  61.5725254  50.8174653  27.3630476  69.7085057  63.9477311
  26.9358084  69.0834776  63.5142746  27.3555420  69.4259979  64.7736318
  27.2989617  69.5737838  64.0057138  28.4213306  56.9111466  67.5716534
  27.9253867  57.1075140  66.8808101  29.1782368  57.3104134  67.4005336
  28.4600130  56.9989200  67.4436671  25.6916185  60.5853812  64.1619845
  25.7158673  60.0513924  63.4732625  25.9427659  60.0771120  64.8245436
  25.7326104  60.4314716  64.1584490  21.9717508  59.3124630  63.5425589
  22.0115879  59.8133836  64.2560297  21.1467172  59.4035024  63.2731512
  21.8557034  59.4006446  63.6076127  23.3931871  65.8285140  65.8399488
  22.5623801  65.9958958  65.6334736  23.3383388  65.4521090  66.6248374
  23.2621286  65.7974871  65.9248016  21.7667915  64.1040731  56.3689606
  21.9070876  64.6013195  57.0718247  22.2650448  63.4027026  56.5103820
  21.8608996  64.0742710  56.4941185  21.7968137  64.9707842  53.6982183
  22.4313217  65.5668267  53.6331645  21.8793748  64.6711300  54.5128053
  21.9024688  65.0148750  53.8085269  23.3747120  60.9021818  53.6727625
  23.6962961  60.4224900  53.0186887  23.6374064  61.7121464  53.4818436
  23.4613145  60.9511716  53.5483117  28.7706275  60.2894012  66.0351104
  29.1961347  59.8366538  65.4234630  28.1563268  59.7354082  66.3115891
  28.7434920  60.1407988  65.9856129  18.3021125  67.1675683  56.9671729
  18.8113354  67.7640191  57.3483034  18.7755397  66.9001657  56.2848148
  18.4464501  67.2161498  56.9226252  27.2100498  56.7609111  59.4441681
  26.5668816  56.6106758  60.0126819  26.8699905  56.5151457  58.6790785
  27.0645575  56.7021234  59.4144696  31.7999844  64.7168538  58.8671689
  31.1291034  65.2598240  58.7384755  32.4939595  65.1863394  58.6253384
  31.8028712  64.8666809  58.8127217  31.9627972  61.1724422  61.7762063
  32.3155582  60.7454145  62.4507861  31.1042773  61.0875265  61.9063139
  31.8877416  61.0969163  61.8957073  20.6611657  63.8031942  59.8344909
  19.9423646  64.2196074  60.1017773  21.0324019  64.3686180  59.2836547
  20.6103589  63.9481223  59.7927716  29.9611238  64.4359790  65.7246905
  29.9409165  64.2543086  66.5781684  30.0090438  65.3071809  65.7006489
  29.9645879  64.5376329  65.8470200  26.4358231  62.8429941  55.1718289
  25.8423070  63.1646938  54.6202856  26.4733509  61.9971037  54.9639395
  26.3532620  62.7654270  55.0601060  33.3952032  56.2942834  62.7046375
  32.8882897  55.5871973  62.6367553  34.1919466  55.9636023  62.8347452
  33.4379271  56.1415985  62.7145370  29.3116048  62.8009446  58.6020039
  29.0829741  62.8242147  57.7598397  29.5714124  61.9766913  58.7215049
  29.3162236  62.6825526  58.4945237  22.3660810  61.3385992  59.8974235
  22.8418177  61.7003072  59.2624416  21.8649410  61.9942460  60.1774377
  22.3626169  61.4880181  59.8450976  35.5972172  70.8107760  55.6887240
  35.9805778  71.5599116  55.9185337  34.8016285  71.0573580  55.4299229
  35.5365954  70.9577454  55.6844813  24.4087463  63.4827192  53.2647619
  24.7886428  63.5006821  52.4798733  23.6680059  63.9281181  53.1438466
  24.3556301  63.5508967  53.1311187  32.0372754  61.7909383  58.8523197
  32.0366980  61.6358040  59.7107474  31.8328934  62.6372370  58.7964583
  32.0072532  61.8930004  58.9711137  29.7613606  66.4706885  62.5059404
  30.2567271  65.7529880  62.4663424  28.9513382  66.1677683  62.3913891
  29.7157499  66.3204531  62.4833130  25.2072217  70.3204698  54.6556409
  24.3983540  69.9971372  54.6089718  25.7147126  69.6137920  54.5884657
  25.1621884  70.1686015  54.6386703  25.3313519  57.7072307  68.4795785
  25.4641425  56.9103301  68.8076761  25.7158672  58.2338710  69.0594061
  25.4069848  57.6672224  68.6139288  28.4045874  54.6302634  65.0776878
  27.5991838  54.5200363  65.3944717  28.2752610  54.7315089  64.2206744
  28.2666007  54.6286304  64.9984919  31.8611835  60.7948125  65.6716575
  31.2774824  61.2957332  65.2594143  32.1816129  60.2877682  65.0380899
  31.8225010  60.7939960  65.5175082  24.4006634  59.7088720  55.9475250
  25.2222328  59.8787033  55.7056945  23.9376285  59.8635981  55.2241548
  24.4537796  59.7570453  55.8046894  22.9901966  57.7031482  66.7273679
  23.5346379  57.3622609  67.3178021  23.0438902  58.5616944  66.8694963
  23.0791085  57.7786742  66.8355552  37.2578157  72.7942430  56.7210999
  37.9864317  72.6158385  56.2749155  37.3473050  73.6360510  56.9318177
  37.3784819  72.8926309  56.6864516  11.8643021  11.7700903  44.7157647
  11.8337025  12.6245539  44.8875917  12.4624369  11.4696195  45.2743791
  11.9480178  11.8517399  44.8232450   5.0642705  10.8576554  49.4710578
   4.2080601  11.0185052  49.5219695   5.1110359   9.9868618  49.4915639
   4.9441817  10.7527356  49.4816644   4.9008805  20.8164641  40.6633356
   4.5660173  21.4941563  40.2277579   5.4135675  20.4269952  40.0750228
   4.9274386  20.8589219  40.5120148   4.4413096  22.7678910  46.6044468
   4.8252476  23.3365808  46.0649243   4.3772237  22.0428420  46.1250284
   4.4886523  22.7454373  46.4538331   7.9094526  12.9168598  52.1142229
   8.4550486  13.5953684  52.1736199   7.8511403  12.7756059  51.2543811
   7.9810441  12.9960599  51.9954290   1.0268601  20.4057664  47.5010582
   1.1278964  19.5958018  47.8107710   0.4310347  20.3114610  46.8710260
   0.9541140  20.2722692  47.4536820   9.6859595  14.3453205  42.9875957
   9.5699121  15.0960891  43.4168095  10.4815482  14.0877158  43.2372044
   9.7864184  14.4188052  43.0880049   0.8669341  25.3235253  48.9025438
   1.5106796  25.7648417  49.2921596   1.1925596  24.5188679  48.8155697
   1.0101170  25.2700448  48.9470915   1.5689921  18.3347228  44.2745300
   1.8905762  18.8752435  43.6706608   2.2162017  17.7643999  44.4067589
   1.7115976  18.3306403  44.2052335   3.6191629  10.3363223  44.3579686
   4.3171793  10.5151350  44.8501150   3.9343961   9.8133562  43.7350076
   3.7686966  10.2856995  44.3381696   3.8079564  16.7233668  44.3459478
   4.2473199  16.1150768  44.7914251   3.6584227  16.3441041  43.5744943
   3.8501030  16.5772139  44.2978645   1.2751207  15.3177680  51.5478303
   1.9200210  14.8250123  51.2289252   1.5152984  15.4602466  52.3744382
   1.4061792  15.2655122  51.6227836   3.8137298  18.1632585  51.1985196
   4.0960541  17.3683991  50.9771952   4.5423459  18.6413173  51.2190257
   3.9626862  18.1167182  51.1688211   7.4088901  15.0760849  41.2990247
   7.3240196  15.9321816  41.4439816   7.8973284  14.8005173  41.9672406
   7.4677798  15.1618170  41.4192329   8.3407334  11.6945643  42.7987982
   7.8118805  11.9105277  43.4585288   8.8632354  12.3881782  42.7188951
   8.3395787  11.8288780  42.8843581  13.7955387  17.2691948  48.1721027
  12.9653090  17.4802591  48.3354443  13.7464639  16.4429002  47.8963310
  13.6662122  17.1781554  48.1558392   1.8565124  20.0995802  51.0068936
   1.3392066  19.7403217  50.4030244   2.5539516  19.5757976  51.0175002
   1.8830705  19.9693490  50.9199195   5.5128716  20.5490616  56.9685109
   5.6012062  20.3616756  57.8163319   5.9418429  19.9028045  56.5689956
   5.5890819  20.4253624  57.0356861   3.0799176  19.8321776  55.9502771
   2.5170011  19.4194386  56.4742433   3.8420200  19.7574682  56.3695915
   3.1093625  19.7599176  56.0895772   4.6884156  11.8374512  40.0764371
   4.9280160  12.0452496  39.2639714   5.0099997  11.0332021  40.1853315
   4.7721314  11.7488613  39.9724924  13.2909345   9.9162348  51.9671448
  12.4537766   9.9864535  52.2019042  13.2597576   9.9186843  51.0945750
  13.1627627   9.9272575  51.8730996   8.0139531  14.1118025  47.5583339
   8.7697046  14.5449539  47.5972248   8.1201855  13.4622795  48.1317975
   8.1409701  14.0795509  47.6481365  11.0519702  17.9391302  48.3085742
  10.6154934  17.9428045  49.0644714  10.7182617  18.6196801  47.8765320
  10.9382322  18.0403758  48.3566575  10.9717185   4.9805130  50.5515170
  11.6143093   5.0503235  51.1377086  11.2240206   4.3134353  50.0494712
  11.1039317   4.8931479  50.5642450   5.7819169  21.8909737  53.2795348
   4.9834415  21.6509237  53.5369217   6.2305180  21.9424130  54.0262396
   5.7293780  21.8632128  53.4280273  14.1864048  14.6572222  47.2005380
  14.8480482  14.0962890  47.1001288  13.5455460  14.1624253  47.5258071
  14.1892916  14.5008631  47.2337720   5.0740856  17.9542353  39.5086303
   5.4892004  17.6227377  38.8170799   4.2432785  17.7211256  39.3806440
   5.0128865  17.8713609  39.3877150  10.4728879  15.6737604  46.9417368
  10.7084468  15.8182803  46.1144219  10.6218442  16.4380012  47.3348882
  10.5294682  15.8076659  46.8780972  12.3019336  14.5139270  44.7786972
  12.6327553  15.0466910  44.1727067  12.8752424  14.5678158  45.4348923
  12.4353015  14.6008839  44.7864754   7.5151225  12.3604173  45.4610552
   7.6098079  13.0993467  45.9150178   6.8910068  11.9321649  45.8945117
   7.4360255  12.4065494  45.5918700   7.7674246  14.2052913  38.6947504
   7.6854409  14.2755100  39.5602491   8.4053966  14.7682657  38.5031245
   7.8494083  14.2991884  38.7937454   1.1267417  13.9713651  48.1622031
   0.8686661  13.1385386  48.1353330   1.1815900  14.1971264  47.3214531
   1.0967195  13.8811422  48.0342167  13.4098687   9.7549767  46.2827134
  13.1535252   8.9429709  46.0925017  14.2528001   9.7627334  46.0557321
  13.4964712   9.6361765  46.2211951   4.8714356  14.2273367  41.7056111
   5.6854995  14.5188260  41.5938882   4.8073497  13.5733229  41.1314404
   4.9817095  14.1738562  41.6044948  11.0923846  16.9099363  56.1185686
  10.8562484  16.0787428  55.9997747  11.7367075  16.8584970  56.7040531
  11.1518517  16.7797051  56.1871580   0.7422264  17.6994885  46.8328423
   1.3796211  17.4606632  47.3780216   1.1677336  17.9032044  46.0981583
   0.8998431  17.6945895  46.8045580   1.3825079  12.9197174  41.1703312
   1.7670232  12.7004881  41.9219857   1.1336700  13.7460120  41.3004389
   1.4027152  13.0095321  41.3004389  12.1160267  16.6943812  52.1813981
  11.8106084  17.4271869  52.5427297  11.3966483  16.2881742  51.9006767
  11.9647609  16.7425545  52.1927118   3.1243736  18.1767307  48.5122209
   3.1982745  18.0142479  49.3664059   3.9413243  18.3657497  48.2682691
   3.2560095  18.1804050  48.6020235  17.8162059  13.3336813  51.5082325
  17.7486559  13.3532772  50.6384912  17.8017722  14.1767140  51.7337996
  17.8040816  13.4610547  51.4134802   1.6648322  21.1402050  43.2435683
   1.9546621  20.7491032  42.5194909   2.3951803  21.3218755  43.6840958
   1.8155206  21.1095864  43.2018490  15.6020676  12.1081199  49.7828920
  16.1528598  11.4749268  50.0226012  15.5864792  12.6396592  50.4744424
  15.6805873  12.0930147  49.9207778   2.2543067  15.9419796  54.3288813
   1.7554761  16.6535564  54.4073701   3.0643292  16.2620463  54.2906975
   2.2999174  16.0946645  54.3345382   9.3049083  10.3477533  48.8933516
   8.9613849   9.6267868  49.2440765   9.4042125  10.1391384  48.0511874
   9.2691126  10.2101736  48.8205196   1.7722193  24.4898823  45.0926525
   2.4246251  23.9575265  45.3217551   1.0747802  24.1367475  45.4794399
   1.7652911  24.3588346  45.1838692   9.7662112  16.8103237  44.4357504
  10.3320144  17.4696447  44.3516047   9.1190015  17.1552935  44.9073906
   9.7540868  16.9585178  44.4930260   6.2368690  19.7542021  43.8594583
   5.9955366  19.0209882  43.4521648   6.4170023  20.3028878  43.2060916
   6.2276314  19.7264412  43.7024806   1.4668010  15.0450581  45.2715505
   1.2710793  15.6525315  44.6775808   1.6902356  14.3518525  44.7907179
   1.4702652  15.0328106  45.1131586   7.8240048   8.2669117  50.7693059
   6.9851149   8.2930396  50.5331322   7.8944415   8.9139853  51.3498405
   7.7108442   8.3665243  50.8202176  11.6997572  13.4737104  48.0554300
  11.6131546  13.6292530  48.9089079  11.2448052  14.1175180  47.6813705
  11.6200829  13.5912859  48.1261407   5.5723388  10.7947851  46.6779860
   5.3258102  10.7143602  47.5116649   5.9008511  10.0101319  46.4842387
   5.5844632  10.6674117  46.7727383   9.4671437  17.5031211  50.4666641
   9.3285796  18.2012256  50.9715384   8.6871435  17.3479867  50.1102823
   9.3314664  17.5831377  50.4892915   0.6048170  21.7207342  52.9563870
   0.7537734  21.1610257  52.3037274   1.3848172  21.7999343  53.3396389
   0.7422264  21.6492907  52.9160819  10.9624810  16.8609464  41.2283140
  10.5831618  16.0746602  41.2212430  10.2991055  17.4096321  41.0854785
  10.8083284  16.8254288  41.2063937   3.1301471  21.8921985  54.2348361
   3.0545142  21.2230795  54.7899149   3.0591330  22.5939773  54.7489027
   3.1082078  21.8966892  54.3925209   3.7871718  20.4122983  45.0671967
   4.5521609  20.1432627  44.7454631   3.6849808  19.9272994  45.7842029
   3.8853213  20.3012548  45.1251794   6.3090378  17.4435167  37.0471916
   7.0763363  17.5035292  36.6377768   5.8621687  16.8715609  36.5628235
   6.3563806  17.3671743  36.9149626   7.2068174  16.2489823  49.3324648
   6.5313176  16.0175055  49.8338035   7.2160550  15.6411006  48.7066753
   7.1086678  16.1248748  49.3140801   9.2084908  19.1054955  41.5634826
   9.2904746  19.9121942  41.2396277   9.6934651  19.1250915  42.2875600
   9.2922066  19.2275618  41.6221725   3.0181412  13.7839791  50.2304904
   2.5943661  13.9844290  49.4943923   2.8426267  12.9368639  50.3429204
   2.9292292  13.6888573  50.1378594   2.5193105  25.2990304  52.6926362
   3.0089035  24.6001093  52.5102026   1.9477337  25.0014174  53.2802419
   2.5077635  25.1516528  52.7527402   4.8443001  13.6549726  44.5326240
   5.3858547  13.1520107  44.9964861   5.1589560  13.6014921  43.7215725
   4.9707398  13.5729147  44.4810052   3.0129451  19.0467078  41.8166268
   3.0822271  18.1881616  41.9559268   3.7917906  19.2638959  41.4885293
   3.1382301  18.9519942  41.7883425   7.4036939  21.4704779  46.0302761
   7.0116730  21.1671494  45.3125627   7.5590011  22.3073869  45.8407715
   7.3690528  21.5488616  45.8959258   7.5676613  18.0354768  45.9708792
   7.2091268  18.2069411  46.7472824   7.0815324  18.4967974  45.4136790
   7.4435310  18.1293739  46.0034061   2.3564979  13.7153933  38.5109026
   2.6457504  14.4918816  38.7852601   2.4436778  13.2042665  39.2123526
   2.4119235  13.7545852  38.6551524   8.7281353  18.9258664  56.9175993
   9.3661073  18.4318860  56.5838449   8.0855444  18.8536064  56.3328220
   8.7275579  18.8417672  56.7818348  10.4538353  10.7747810  51.4841908
  10.0265961  10.6874158  50.7290008   9.8164406  10.8825585  52.0696752
  10.2967960  10.7780470  51.4587350   8.7835609  19.6178472  53.5581349
   9.5727987  19.2667537  53.6783431   8.9579207  20.4314861  53.2957983
   8.9255891  19.6864329  53.5369217   2.3345585  10.9568597  49.8606736
   2.0308722  10.4024585  50.4617144   1.6325005  11.1360807  49.3734770
   2.1861794  10.9013379  49.8776441  10.8903121   4.1819793  47.6000533
  10.2777435   4.6690195  47.9854265  10.9867296   3.5063284  48.1438185
  10.8141019   4.1538102  47.7379392  14.5328149  15.2536730  53.0278049
  14.5911273  15.7023379  53.7738026  13.8994617  15.6635543  52.5908129
  14.4479444  15.3810465  53.0730598   8.1727244  20.8740272  49.4632796
   7.9746932  21.3631086  48.7689007   7.5514955  21.0781513  50.0416929
   8.0514808  20.9756810  49.4456019   2.2335222  12.6425169  43.8043040
   2.9777267  13.0299445  44.0425990   2.3795918  11.7982594  43.9683528
   2.3645807  12.5755641  43.8637010  11.4849829  13.2753018  51.1143740
  11.2448052  12.4359433  51.1186166  11.9641836  13.3553184  51.8384513
  11.5202012  13.1634417  51.2218542   7.1496598   9.1087197  42.7662713
   6.6219616   9.1915941  42.0768422   7.6092306   9.8505068  42.7627358
   7.1398448   9.2307859  42.6637408  13.4855016  10.0554475  49.0672999
  13.2464786  10.0150309  48.2293784  13.6488917  10.9025627  49.1938720
  13.4745319  10.1746560  48.9626481  10.0901046  14.4404424  54.9978044
  10.8135245  13.9876951  54.8189064   9.8251008  14.7209090  54.2150372
  10.1582319  14.4155393  54.8556759   6.7033680  17.6790760  41.8972370
   7.4267879  18.1448873  41.7536943   6.2634271  17.7464370  41.1469967
   6.7449372  17.7574597  41.7657152   5.8719835  14.5388302  53.1473059
   5.2576828  13.9946353  53.4421694   6.3887120  14.0252539  52.6678875
   5.8575498  14.3824711  53.1197288   5.1116132  15.6092572  50.8817358
   4.6843740  14.9842291  50.4482793   5.1041077  15.3267494  51.7076365
   5.0475274  15.4745353  50.9397185  12.5236360  13.4030835  53.5008594
  13.1154200  14.0428086  53.5326792  12.9595354  12.7053872  53.7900661
  12.6754791  13.3949185  53.5489426   4.3529750  17.8248207  54.1266488
   3.8454841  18.3784054  54.5707118   4.0556396  17.8856497  53.3085262
   4.2334635  17.9154519  54.0714944   6.9637530  21.7411465  42.0570431
   6.2466840  21.5672327  41.5917669   7.6144268  21.5064037  41.5245917
   6.9539380  21.6807258  41.9099649   9.5485501  10.6176054  45.8011736
   8.8776691  11.1605756  45.6724802  10.2425251  11.0870909  45.5593431
   9.5514369  10.7674325  45.7467264   3.5972235  22.7572766  51.0323495
   3.3737889  21.9991595  51.4007521   3.1082078  22.7870787  50.3103934
   3.4915684  22.6494990  50.9800236   9.7113629   7.0731937  48.7102109
  10.0641239   6.6461660  49.3847908   8.8528430   6.9882781  48.8403186
   9.6363073   6.9976678  48.8297120   7.7096894  10.3367306  52.6586952
   7.6894822  10.1550601  53.5121731   7.7576095  11.2079324  52.6346535
   7.7131535  10.4383844  52.7810246   2.2450692  22.9773224  48.4860579
   1.8311090  22.3147354  48.0964421   2.9298066  23.1251082  47.9656273
   2.2849064  22.9013882  48.3517076   5.6115986  22.1363309  49.2384196
   5.2132269  22.2465579  48.4705016   4.9967206  22.3445375  49.8210756
   5.4614875  22.1836877  49.2115495   7.0601705   8.7016961  45.5360086
   6.8315398   8.7249663  44.6938444   7.3199781   7.8774428  45.6555096
   7.0647893   8.5833041  45.4285283  13.3457829  16.7115276  42.6227286
  13.7291434  17.4606632  42.8525383  12.5501942  16.9581095  42.3639275
  13.2851611  16.8584970  42.6184860   9.7858411   7.6916899  45.7863244
   9.7852637   7.5365555  46.6447520   9.5814591   8.5379886  45.7304630
   9.7558189   7.7937519  45.9051183   7.5099263  12.3714400  49.4399451
   8.0052928  11.6537395  49.4003471   6.6999039  12.0685198  49.3253938
   7.4643156  12.2212047  49.4173177   2.9557874  16.2212214  41.5896455
   2.1469197  15.8978887  41.5429765   3.4632783  15.5145436  41.5224704
   2.9107541  16.0693530  41.5726750   9.5751082  15.1218088  52.1276580
  10.0006153  14.5992510  51.5747005   9.2108001  15.7198925  51.6065203
   9.5837684  15.1328315  51.9685589   6.1629681  18.8352352  48.4577737
   6.6340859  19.5492615  48.6267722   6.4989860  18.2351102  48.9937607
   6.2824796  18.8523816  48.5610113   6.8003627  18.6270286  55.2205430
   6.2524573  18.0028170  54.9525495   7.2616656  18.8164558  54.5049509
   6.7870837  18.5629336  55.0755861   6.3661954  19.6321359  51.7514771
   7.1860328  19.4884325  52.0131066   6.0856031  20.2567558  52.2931209
   6.4458697  19.7031711  51.8702710  16.0375289  26.3761862  49.4710578
  15.1813184  26.5370360  49.5219695  16.0842943  25.5053926  49.4915639
  15.9174400  26.2712664  49.4816644  10.4216429  35.9124580  45.2347809
   9.6699328  35.5340118  45.0063854  10.8702440  35.9443013  44.4866620
  10.3766095  35.8610187  45.0905311  19.3469005  32.6448387  59.0771034
  20.0535773  32.1500418  59.2057968  19.5356941  33.0857469  58.3473692
  19.4796911  32.6366738  58.9880079  15.4145680  38.2864218  46.6044468
  15.7985059  38.8551116  46.0649243  15.3504821  37.5613728  46.1250284
  15.4619107  38.2639681  46.4538331  18.8827110  28.4353906  52.1142229
  19.4283070  29.1138992  52.1736199  18.8243986  28.2941366  51.2543811
  18.9543024  28.5145907  51.9954290  12.0001185  35.9242972  47.5010582
  12.1011548  35.1143326  47.8107710  11.4042930  35.8299918  46.8710260
  11.9273723  35.7908000  47.4536820  11.8401924  40.8420561  48.9025438
  12.4839380  41.2833725  49.2921596  12.1658180  40.0373987  48.8155697
  11.9833753  40.7885756  48.9470915   5.1966229  31.9463258  47.1262915
   4.9616414  31.1130911  47.0195184   5.3351870  32.2267924  46.3124116
   5.1821892  31.8646762  46.9905270   7.4956317  24.1148989  50.0247223
   6.8761348  23.5241636  49.8557238   7.3940180  24.7060424  49.3911546
   7.3893992  24.1153071  49.9052213  12.5422504  33.8532536  44.2745300
  12.8638345  34.3937743  43.6706608  13.1894601  33.2829307  44.4067589
  12.6848559  33.8491711  44.2052335  14.5924212  25.8548531  44.3579686
  15.2904377  26.0336658  44.8501150  14.9076545  25.3318870  43.7350076
  14.7419549  25.8042303  44.3381696   7.2225450  27.6601271  52.2690792
   7.0984146  28.2463716  52.9040611   7.8743734  27.1661466  52.5703067
   7.2999099  27.6740075  52.4076721  14.7812148  32.2418976  44.3459478
  15.2205783  31.6336076  44.7914251  14.6316810  31.8626349  43.5744943
  14.8233613  32.0957447  44.2978645  12.2483791  30.8362988  51.5478303
  12.8932793  30.3435431  51.2289252  12.4885568  30.9787774  52.3744382
  12.3794376  30.7840430  51.6227836  14.7869882  33.6817893  51.1985196
  15.0693125  32.8869299  50.9771952  15.5156042  34.1598481  51.2190257
  14.9359446  33.6352490  51.1688211  12.7651076  21.2240927  48.4400961
  12.4354406  21.6752071  47.7704660  12.0896078  21.1457091  48.9873967
  12.6161512  21.2792063  48.4224184  24.7687970  32.7877256  48.1721027
  23.9385673  32.9987899  48.3354443  24.7197223  31.9614310  47.8963310
  24.6394706  32.6966862  48.1558392  11.2039525  31.1094168  41.5995450
  10.6196740  31.6144199  42.0061314  10.8009620  30.8836555  40.8592042
  11.0578829  31.1502416  41.5500475   6.7583554  36.8248929  48.4019122
   6.2751132  37.5499419  48.3778705   7.5706872  37.1225059  48.5129279
   6.8074302  36.9751283  48.4146401  12.8297708  35.6181110  51.0068936
  12.3124649  35.2588525  50.4030244  13.5272099  35.0943284  51.0175002
  12.8563289  35.4878798  50.9199195  16.4861300  36.0675924  56.9685109
  16.5744646  35.8802064  57.8163319  16.9151012  35.4213353  56.5689956
  16.5623402  35.9438932  57.0356861  14.0531760  35.3507084  55.9502771
  13.4902594  34.9379694  56.4742433  14.8152783  35.2759989  56.3695915
  14.0826208  35.2784484  56.0895772  10.9707030  19.2853216  43.9223909
  11.7252998  19.6531533  43.6840959  10.7934564  19.6592770  44.6903088
  11.0561508  19.3951404  44.0008797   9.6127751  37.3405105  48.5539401
  10.3148330  36.8257094  48.6112158   9.5325234  37.6679256  49.3586277
   9.7051511  37.3119331  48.6812194  24.2641929  25.4347656  51.9671448
  23.4270350  25.5049843  52.2019042  24.2330159  25.4372151  51.0945750
  24.1360211  25.4457883  51.8730996  10.6606658  27.5780692  57.6819817
  10.8327161  27.4686587  58.5305098  11.1976015  28.2235097  57.4451009
  10.7651662  27.6572694  57.7724913   9.3264094  21.6923535  40.6202022
   9.1439668  21.9095416  39.7943014  10.1889708  21.8062547  40.6760636
   9.4268684  21.7413433  40.5056509   8.9378526  33.5311457  48.0625010
   9.7767426  33.7634390  48.1098771   8.9690296  32.6615768  47.9932045
   9.0660244  33.4368403  48.0589654   9.5631229  33.9512332  52.3638315
  10.1029454  33.8083463  53.0341687   8.8801176  34.3509083  52.7322341
   9.5423383  33.9892003  52.5172737  15.0063814  18.6949945  43.6551045
  15.7349974  18.5165900  43.2089202  15.0958707  19.5368025  43.8658224
  15.1270476  18.7933824  43.6204563  18.9872114  29.6303333  47.5583339
  19.7429629  30.0634847  47.5972248  19.0934439  28.9808103  48.1317975
  19.1142285  29.5980817  47.6481365  22.0252285  33.4576610  48.3085742
  21.5887517  33.4613352  49.0644714  21.6915201  34.1382109  47.8765320
  21.9114905  33.5589066  48.3566575  16.5981359  35.4984943  59.6328893
  17.3821776  35.6115791  59.9984635  16.3977954  34.6726080  59.8287579
  16.6847384  35.3931662  59.7163279   4.9668375  30.1712623  52.5172737
   4.7006790  29.3551740  52.6763727   4.9806939  30.2165779  51.6468252
   4.9293097  30.0569528  52.4126219  21.9449768  20.4990438  50.5515170
  22.5875677  20.5688542  51.1377086  22.1972789  19.8319661  50.0494712
  22.0771900  20.4116787  50.5642450   8.8726122  24.9697707  39.1324495
   8.1584299  24.6835887  39.5446927   9.3570090  25.3094333  39.7730882
   8.8385485  24.9779357  39.2880130   9.7166981  23.7091001  55.1639744
   9.0238778  23.2387981  55.4100476  10.3327308  23.4829306  55.7381451
   9.7051511  23.6058133  55.2848897  16.7551752  37.4095045  53.2795348
  15.9566998  37.1694545  53.5369217  17.2037764  37.4609438  54.0262396
  16.7026364  37.3817436  53.4280273   5.3761788  30.9571402  49.7984481
   5.1937361  30.9318288  48.9456773   6.1111457  31.4270340  49.8373390
   5.4575852  31.0232765  49.6782399  21.4461462  31.1922912  46.9417368
  21.6817052  31.3368111  46.1144219  21.5951026  31.9565320  47.3348882
  21.5027266  31.3261967  46.8780972   8.4407540  27.6756405  56.3066589
   9.1647512  27.6609436  56.7931484   8.5423676  28.3851760  55.8088558
   8.5625749  27.7781108  56.3045376  15.8152489  31.1555490  61.1715537
  15.0225470  31.4699002  61.3568156  15.9301416  31.3706958  60.3336321
  15.7147900  31.2339327  61.0753871  18.4883808  27.8789481  45.4610552
  18.5830663  28.6178775  45.9150178  17.8642652  27.4506956  45.8945117
  18.4092838  27.9250802  45.5918700  16.7436282  31.0575694  56.1100833
  17.3175144  30.4202938  56.2649397  16.6651086  31.0579776  55.2410491
  16.8169517  30.9640805  56.0047244   5.3432699  27.8364903  49.9483547
   5.9206201  27.7001354  50.5875793   4.6446760  27.3800687  50.2029132
   5.3253720  27.7487169  50.0805837  12.1000001  29.4898959  48.1622031
  11.8419245  28.6570694  48.1353330  12.1548484  29.7156572  47.3214531
  12.0699779  29.3996730  48.0342167  17.1801051  21.5927409  48.2626123
  16.4757378  21.1036595  48.4210042  17.2286025  21.6049884  47.3914568
  17.0831102  21.5217057  48.1565463  11.0734713  27.0436721  48.6486925
  10.4984304  27.2028890  49.2850886  10.6970389  26.4072130  48.1855376
  10.9337525  26.9734534  48.6741484  14.7408002  25.5160070  53.5079304
  14.3522434  25.0914288  52.8531495  14.0762700  25.7642220  54.0156330
  14.5854929  25.4898792  53.4867172   0.8191532  26.6876796  46.6631366
   0.9051784  26.3108664  47.4444896   1.4467329  26.3137242  46.1851324
   0.9248083  26.5762278  46.7076843  18.5634363  19.2134699  51.0203288
  18.9444875  18.5312870  51.4071162  17.7597647  18.9244301  50.8378953
  18.5010825  19.0701748  51.0507344  22.0656430  32.4284671  56.1185686
  21.8295067  31.5972736  55.9997747  22.7099659  32.3770278  56.7040531
  22.1251101  32.2982359  56.1871580  11.7154848  33.2180193  46.8328423
  12.3528795  32.9791940  47.3780216  12.1409920  33.4217351  46.0981583
  11.8731014  33.2131203  46.8045580   6.4067490  35.4568529  50.7162727
   6.4471636  35.7283380  49.8882506   6.9662014  35.9810437  51.1320515
   6.4950836  35.5744284  50.6554615  12.3557663  28.4382482  41.1703312
  12.7402816  28.2190189  41.9219857  12.1069283  29.2645428  41.3004389
  12.3759736  28.5280629  41.3004389  12.5226203  21.7188897  60.8865896
  12.2079645  22.4888460  60.6235459  12.2016136  21.1559154  60.3018123
  12.4285123  21.7499166  60.7607246  23.0892851  32.2129120  52.1813981
  22.7838668  32.9457177  52.5427297  22.3699066  31.8067049  51.9006767
  22.9380193  32.2610853  52.1927118  14.0976320  33.6952615  48.5122209
  14.1715328  33.5327787  49.3664059  14.9145826  33.8842805  48.2682691
  14.2292679  33.6989357  48.6020235   7.8582077  34.0410478  45.5416653
   7.0320194  34.2872215  45.4150931   7.9194068  33.9622559  46.4078711
   7.7456244  34.0655427  45.6505597  10.0758100  20.1079419  46.5012093
   9.2080526  20.1802018  46.5669702  10.3633305  20.9101498  46.6900068
   9.9897849  20.2373566  46.5386859  19.1990989  20.2557278  54.8323415
  19.9444581  20.0667089  54.4186840  18.7828294  20.7815516  54.2737271
  19.2475963  20.3059424  54.6887988  12.6380906  36.6587358  43.2435683
  12.9279204  36.2676340  42.5194909  13.3684387  36.8404063  43.6840958
  12.7887790  36.6281172  43.2018490  13.2275651  31.4605104  54.3288813
  12.7287345  32.1720872  54.4073701  14.0375875  31.7805771  54.2906975
  13.2731758  31.6131953  54.3345382  10.5786821  38.6354741  46.3095832
  10.3587117  38.3452095  47.1022499  10.3581343  37.9769696  45.7813745
  10.5134415  38.4954449  46.3484741   9.4903768  30.7228057  48.5751534
   9.2017017  30.0965528  49.1097261  10.3587117  30.6648345  48.6416214
   9.5764020  30.6215601  48.6642488  20.2781666  25.8662841  48.8933516
  19.9346432  25.1453176  49.2440765  20.3774709  25.6576692  48.0511874
  20.2423709  25.7287044  48.8205196  12.7454777  40.0084131  45.0926525
  13.3978835  39.4760573  45.3217551  12.0480386  39.6552783  45.4794399
  12.7385495  39.8773654  45.1838692   9.6936042  32.3623308  44.4993899
  10.4482010  32.7436347  44.7129362   9.1006655  32.8134452  44.9540595
   9.7172755  32.4852136  44.5976777  12.1542709  24.3186149  59.6251111
  11.3442485  24.6243928  59.5140954  12.6317396  25.0391731  59.7403695
  12.1046188  24.4700750  59.6258182  11.0134268  33.5331870  49.8734014
  10.4915022  33.6732161  50.5585879  11.4008289  32.7742534  50.0636132
  10.9937969  33.4417393  50.0035091   8.0025452  23.5837678  43.9428969
   7.7150248  23.2138949  43.2060916   8.6895921  24.0532534  43.6812674
   8.0614350  23.5984648  43.7944045  12.4400594  30.5635889  45.2715505
  12.2443377  31.1710623  44.6775808  12.6634940  29.8703833  44.7907179
  12.4435235  30.5513414  45.1131586  10.8379124  27.4490626  45.3896374
  11.5601776  27.6131785  44.9300180  10.3587117  28.1700291  45.2835714
  10.8742855  27.5788856  45.3061988  18.7972632  23.7854425  50.7693059
  17.9583732  23.8115704  50.5331322  18.8676999  24.4325161  51.3498405
  18.6841025  23.8850551  50.8202176   8.4886741  29.8548699  54.4950514
   9.0007838  30.1332952  53.8459273   8.2023083  30.5937993  54.8613327
   8.5221604  30.0051053  54.4540392  17.2441910  20.6839802  45.5020675
  17.9468263  20.4847551  45.0240633  16.9786099  19.9115745  45.8089518
  17.3088542  20.5402768  45.4766116  22.6730156  28.9922412  48.0554300
  22.5864130  29.1477838  48.9089079  22.2180635  29.6360488  47.6813705
  22.5933412  29.1098167  48.1261407   5.5753647  24.3618891  44.7914250
   5.6769784  25.1645052  45.1195226   6.3709534  24.1606227  44.4937331
   5.7081553  24.4504790  44.7949605  12.0070466  21.9475087  54.5551555
  11.8153663  21.9630222  55.4050979  12.8569062  22.1438762  54.5318210
  12.1046188  21.9789439  54.6774850   6.3917379  24.4766069  52.5335372
   6.2502871  23.6250010  52.6579880   6.6757943  24.5194730  51.7097578
   6.4125225  24.3565819  52.4302996  16.5455972  26.3133159  46.6779860
  16.2990686  26.2328910  47.5116649  16.8741095  25.5286627  46.4842387
  16.5577215  26.1859424  46.7727383  20.4404020  33.0216518  50.4666641
  20.3018380  33.7197564  50.9715384  19.6604018  32.8665175  50.1102823
  20.3047247  33.1016685  50.4892915  18.7782106  29.3212894  56.7189023
  18.7730144  28.4492710  56.7231449  19.4843099  29.5201063  56.2458479
  18.8827110  29.2216768  56.6496058  12.5052999  29.0489878  56.0902843
  12.6496375  29.6291086  55.4545953  12.8528647  29.4266174  56.7952698
  12.5780460  29.1910582  56.1001838  14.6772916  28.2480046  53.8727975
  13.9296230  28.4411060  53.4676253  14.8314441  27.4225266  53.6352096
  14.5895344  28.1545158  53.7773380  11.5780754  37.2392650  52.9563870
  11.7270318  36.6795565  52.3037274  12.3580756  37.3184651  53.3396389
  11.7154847  37.1678215  52.9160819  14.1034054  37.4107292  54.2348361
  14.0277726  36.7416103  54.7899149  14.0323914  38.1125081  54.7489027
  14.0814661  37.4152200  54.3925209  14.9174693  22.1430597  54.7623378
  15.3747307  22.8754571  54.8896171  14.9931022  21.7197062  55.5210634
  14.9965663  22.1887835  54.8924455   7.1607684  22.3896417  55.8512822
   6.6249874  21.7776775  56.1673589   7.2225449  22.9644553  56.5046489
   7.0903317  22.3843344  55.9948249  19.3902019  15.3220472  48.6317221
  19.5085587  15.7796935  47.8984524  19.2164195  14.5165733  48.3453439
  19.3821190  15.2714244  48.4818155  14.7604301  35.9308291  45.0671967
  15.5254192  35.6617935  44.7454631  14.6582391  35.4458302  45.7842029
  14.8585797  35.8197856  45.1251794  12.7957071  24.1332701  51.6065202
  12.0053146  23.9524161  51.9282538  13.1917694  23.3559653  51.5895497
  12.7373947  23.9920162  51.6517751  18.1800757  31.7675131  49.3324648
  17.5045759  31.5360363  49.8338035  18.1893134  31.1596314  48.7066753
  18.0819262  31.6434056  49.3140801  15.3094901  26.6092960  56.0888701
  15.2454043  27.4702916  55.9608838  15.4492089  26.2924953  55.2884253
  15.3210371  26.6893127  55.9516914  13.9913995  29.3025099  50.2304904
  13.5676244  29.5029598  49.4943923  13.8158850  28.4553947  50.3429204
  13.9024876  29.2073881  50.1378594  13.4925689  40.8175612  52.6926362
  13.9821619  40.1186401  52.5102026  12.9209921  40.5199482  53.2802419
  13.4810219  40.6701836  52.7527402   9.2796440  29.7977151  45.6632877
   9.4361059  29.7323953  46.5188869   9.6197033  30.5725703  45.4511556
   9.3529675  29.9026349  45.7587471  15.8175585  29.1735034  44.5326240
  16.3591130  28.6705415  44.9964861  16.1322144  29.1200229  43.7215725
  15.9439982  29.0914455  44.4810052  19.6892692  33.3837682  61.6453152
  20.5027558  33.1122830  61.8058285  19.5287659  33.0845222  60.8413348
  19.7862641  33.2992608  61.5498558  13.9862035  34.5652386  41.8166268
  14.0554855  33.7066924  41.9559268  14.7650490  34.7824267  41.4885293
  14.1114885  34.4705250  41.7883425  16.9664854  24.0671339  54.5848540
  17.1806824  23.4282253  54.0311894  16.3498753  24.5117163  54.1556402
  16.9070184  24.0381482  54.4398972   5.8530702  26.9812101  45.9793644
   6.2329667  27.3996646  45.3153911   5.2786067  27.5625557  46.2862487
   5.8242027  27.1289960  45.9270385  19.1303942  25.6760404  55.5231848
  18.3180624  25.3686294  55.6045020  19.5893877  25.1959404  56.0874560
  19.0784327  25.5596896  55.6186442  18.5409197  33.5540076  45.9708792
  18.1823852  33.7254719  46.7472824  18.0547908  34.0153282  45.4136790
  18.4167894  33.6479047  46.0034061  16.3579583  17.1771274  49.5735883
  15.4873141  17.1509995  49.5269193  16.6119924  17.0048467  48.7561729
  16.2673143  17.1481418  49.4456020  13.3297562  29.2339241  38.5109026
  13.6190087  30.0104124  38.7852601  13.4169361  28.7227973  39.2123526
  13.3851819  29.2731160  38.6551524  16.2257450  27.0820475  60.3060550
  16.6957081  27.7062592  60.6928424  16.2719330  26.4137451  60.8653765
  16.3025326  27.0755156  60.4460621  13.3828723  19.1877503  51.0309354
  12.8667212  18.4957694  51.1560933  12.8222652  19.8548280  50.9771952
  13.2235237  19.1840760  51.0415420  15.4520957  19.7270463  52.8602206
  15.0652710  19.7519494  53.6415736  14.9653894  19.1612142  52.4076723
  15.3233466  19.6466214  52.9090110  19.7013936  34.4443972  56.9175993
  20.3393657  33.9504167  56.5838449  19.0588028  34.3721372  56.3328220
  19.7008163  34.3602980  56.7818348  21.4270936  26.2933118  51.4841908
  20.9998544  26.2059466  50.7290008  20.7896989  26.4010893  52.0696752
  21.2700544  26.2965778  51.4587350  15.1178099  16.6137448  55.1512466
  15.7471217  17.1497748  54.8733536  15.2863961  16.5214807  56.0026032
  15.2355893  16.6798811  55.2360994  14.9192013  21.4008643  57.4238878
  15.7465443  21.1293792  57.4797492  14.9399860  22.1969485  57.7802696
  15.0444864  21.4788397  57.4854061  19.7568193  35.1363780  53.5581349
  20.5460571  34.7852845  53.6783431  19.9311791  35.9500169  53.2957983
  19.8988475  35.2049637  53.5369217   9.4961503  28.5472506  50.6109138
   8.6549510  28.4476380  50.8188032   9.7051511  29.3167986  50.9623459
   9.4026196  28.6464549  50.6936453   6.9737070  26.1692043  48.4393889
   6.5793768  26.2435055  47.6643999   6.4177187  26.5549989  48.9902251
   6.8339883  26.2373817  48.4061549  18.6102017  19.1473337  48.1197768
  18.8151610  19.0795645  48.9654765  18.2828441  19.9532158  48.0518945
  18.5917265  19.2559277  48.2357423  13.3078168  26.4753905  49.8606736
  13.0041306  25.9209893  50.4617144  12.6057589  26.6546115  49.3734770
  13.1594378  26.4198687  49.8776441  12.3644265  23.7854425  44.4251438
  12.6404000  23.0673337  44.0129005  12.9642935  24.3839345  44.2172544
  12.4937530  23.7674796  44.3332199  11.3696519  33.6903626  54.5678834
  11.2616874  33.7005688  55.4340892  11.5792301  34.5158406  54.3783787
  11.3846630  33.8144701  54.6682925  15.8654786  21.4567942  42.6998033
  16.3198532  21.6278503  43.4245877  16.3394832  20.8436053  42.2995808
  16.0023106  21.3918827  42.7471794   9.3870311  30.9416268  52.0300771
   8.7958244  31.5825766  52.0003786  10.1491335  31.3653885  52.0032071
   9.4118572  31.0992107  52.0215918   9.7830934  22.1018266  52.6968789
  10.2432416  22.1757195  53.4343913   9.8287041  22.8999520  52.3468610
   9.8581489  22.2312413  52.7541545  11.4314284  22.7684961  57.2640816
  11.0399849  22.1218308  57.6996594  11.6000146  23.3596396  57.8835071
  11.3985194  22.7599229  57.4203522  19.1459827  36.3925580  49.4632796
  18.9479516  36.8816394  48.7689007  18.5247538  36.5966821  50.0416929
  19.0247392  36.4942118  49.4456019  13.2067806  28.1610477  43.8043040
  13.9509851  28.5484753  44.0425990  13.3528502  27.3167902  43.9683528
  13.3378391  28.0940949  43.8637010  15.1247381  19.9560735  48.8374901
  14.2783426  20.1283543  48.7116251  15.1218514  19.1510079  49.1740730
  14.9994531  19.8621764  48.8686028  16.1945682  23.7335950  49.7036959
  15.7205636  23.2077712  50.2142270  16.5663817  23.1865423  49.1351821
  16.1795571  23.5751946  49.6952106   6.5718712  25.7307457  55.0720505
   7.4344325  25.6303166  54.9857835   6.2410495  25.1502166  54.5106077
   6.6503908  25.6299083  54.9765911  22.4582412  28.7938326  51.1143740
  22.2180635  27.9544741  51.1186166  22.9374419  28.8738492  51.8384513
  22.4934596  28.6819725  51.2218542  24.4587599  25.5739783  49.0672999
  24.2197369  25.5335617  48.2293784  24.6221500  26.4210935  49.1938720
  24.4477903  25.6931868  48.9626481  21.0633629  29.9589732  54.9978044
  21.7867828  29.5062258  54.8189064  20.7983592  30.2394398  54.2150372
  21.1314903  29.9340701  54.8556759   9.9320498  24.5549906  51.7330923
   9.3073568  24.5668298  51.1256876   9.5966093  25.0310081  52.3822163
   9.7905990  24.6268423  51.7387492  10.1162246  22.8975024  37.7903608
   9.7675051  23.5494749  38.2535158   9.6358692  22.8832137  37.0627479
   9.9932490  22.9918078  37.7514700   6.6446173  32.6150366  53.1734688
   6.1146098  31.9242805  53.2229662   6.9171267  32.6060551  52.3447396
   6.6070896  32.5117498  53.0582103  16.8452419  30.0573610  53.1473059
  16.2309412  29.5131661  53.4421694  17.3619704  29.5437847  52.6678875
  16.8308081  29.9010019  53.1197288  16.0848716  31.1277880  50.8817358
  15.6576324  30.5027599  50.4482793  16.0773660  30.8452802  51.7076365
  16.0207857  30.9930661  50.9397185   9.2011243  26.1643053  53.9505792
   9.3604730  25.4086378  54.3557514   9.0204137  26.7133993  54.6046529
   9.1976602  26.1336867  54.1068498  17.1431546  18.3304289  54.5056581
  16.6472107  18.5267963  53.8148148  17.9000608  18.7296957  54.3345383
  17.1818371  18.4182023  54.3776718  14.4134426  22.0046635  51.0959892
  14.4376913  21.4706747  50.4072672  14.6645899  21.4963944  51.7585482
  14.4544344  21.8507539  51.0924536   1.9242016  29.2878130  50.5303036
   1.8185465  29.2424974  49.6655120   1.1742236  29.6331910  50.8117321
   1.7977618  29.3319038  50.4440366  10.6935748  20.7317453  50.4765636
  10.7334120  21.2326660  51.1900343   9.8685413  20.8227847  50.2071559
  10.5775274  20.8199269  50.5416174  12.8765361  30.2978193  58.5785931
  12.0260991  30.4349907  58.7143576  13.0393489  29.5641971  59.0233632
  12.7749224  30.2092294  58.6641530  12.1150111  27.2477963  52.7739535
  11.2842041  27.4151781  52.5674783  12.0601629  26.8713914  53.5588420
  11.9839526  27.2167694  52.8588063   9.9233895  20.7386856  58.4095946
  10.5486598  20.1948989  58.6825378   9.4684375  20.2581773  57.8403736
   9.9482155  20.5876337  58.3657540  10.4886155  25.5233554  43.3029653
  10.6289116  26.0206019  44.0058294  10.9868688  24.8219849  43.4443866
  10.5827236  25.4935533  43.4281232  10.5186378  26.3900666  40.6322230
  11.1531457  26.9861091  40.5671691  10.6011988  26.0904123  41.4468100
  10.6242929  26.4341574  40.7425316  23.4968943  28.9216143  53.5008594
  24.0886784  29.5613394  53.5326792  23.9327938  28.2239180  53.7900661
  23.6487375  28.9134493  53.5489426  12.0965360  22.3214641  40.6067672
  12.4181201  21.8417723  39.9526934  12.3592304  23.1314287  40.4158483
  12.1831386  22.3704539  40.4823164  15.3262333  33.3433515  54.1266488
  14.8187424  33.8969362  54.5707118  15.0288979  33.4041805  53.3085262
  15.2067218  33.4339826  54.0714944  17.4924515  21.7086835  52.9691151
  17.9179587  21.2559361  52.3574677  16.8781508  21.1546906  53.2455938
  17.4653161  21.5600811  52.9196176   7.0239365  28.5868506  43.9011776
   7.5331595  29.1833014  44.2823081   7.4973638  28.3194480  43.2188195
   7.1682741  28.6354322  43.8566298  15.9318738  18.1801935  46.3781728
  15.2887056  18.0299581  46.9466866  15.5918145  17.9344280  45.6130832
  15.7863816  18.1214057  46.3484743  20.5218085  26.1361361  45.8011736
  19.8509275  26.6791064  45.6724802  21.2157835  26.6056217  45.5593431
  20.5246952  26.2859633  45.7467264  14.5704818  38.2758073  51.0323495
  14.3470473  37.5176903  51.4007521  14.0814662  38.3056095  50.3103934
  14.4648267  38.1680298  50.9800236  20.6846212  22.5917245  48.7102109
  21.0373822  22.1646968  49.3847908  19.8261014  22.5068089  48.8403186
  20.6095657  22.5161986  48.8297120   9.3829897  25.2224765  46.7684956
   8.6641886  25.6388897  47.0357820   9.7542259  25.7879004  46.2176594
   9.3321829  25.3674046  46.7267763  18.6829478  25.8552614  52.6586952
  18.6627405  25.6735909  53.5121731  18.7308679  26.7264632  52.6346535
  18.6864119  25.9569152  52.7810246  16.6275808  32.4439806  58.5835428
  16.5871663  31.7989483  57.9980584  17.4399126  32.3876423  58.8960840
  16.7418961  32.3398773  58.5432377  13.2183275  38.4958532  48.4860579
  12.8043674  37.8332662  48.0964421  13.9030650  38.6436390  47.9656273
  13.2581647  38.4199190  48.3517076  16.5848570  37.6548617  49.2384196
  16.1864853  37.7650887  48.4705016  15.9699789  37.8630683  49.8210756
  16.4347459  37.7022185  49.2115495  15.1576472  24.2622765  42.1058335
  14.5641311  24.5839761  41.5542903  15.1951749  23.4163860  41.8979442
  15.0750861  24.1847093  41.9941107  22.1170272  17.7135657  49.6386422
  21.6101137  17.0064797  49.5707599  22.9137706  17.3828846  49.7687499
  22.1597511  17.5608808  49.6485417  18.0334288  24.2202269  45.5360086
  17.8047981  24.2434971  44.6938444  18.2932364  23.3959736  45.6555096
  18.0380476  24.1018349  45.4285283  12.3153517  26.0736742  55.1385186
  11.8032420  25.4657925  55.4970217  12.1433013  26.7893335  55.6059162
  12.2143154  26.0900042  55.2601410   7.1619231  24.5174318  57.7887548
   6.9921822  25.1775692  57.2435754   6.7185181  24.7280879  58.5100037
   7.0718565  24.6460300  57.8149177  11.0879051  22.7578816  46.8314281
  11.5636417  23.1195895  46.1964463  10.5867650  23.4135283  47.1114424
  11.0844410  22.9073004  46.7791022  16.1922587  23.9960987  57.5787441
  16.7494017  23.7674796  56.9465907  15.8683652  24.7566653  57.3022654
  16.2268997  24.0744824  57.4443939   4.0621296  27.4221183  53.0476038
   3.5148015  26.7521829  53.1656906   4.8513674  27.0551031  53.1119505
   4.0973479  27.2686170  53.0744738  13.9105704  27.0828640  58.5439449
  14.6617031  27.3980317  58.8579003  14.1028281  26.8807811  57.7173370
  14.0497118  27.0996022  58.4682844  13.1305704  24.9020015  40.1987665
  13.5104669  24.9199644  39.4138780  12.3898300  25.3474004  40.0778513
  13.0774542  24.9701790  40.0651234   2.8208265  26.6341991  50.2022061
   2.6430026  26.1818600  50.9276976   2.5327287  27.4368152  50.3860538
   2.7521218  26.6864549  50.3365563  18.4831846  27.8899708  49.4399451
  18.9785512  27.1722703  49.4003471  17.6731622  27.5870506  49.3253938
  18.4375740  27.7397355  49.4173177  13.9290458  31.7397522  41.5896455
  13.1201781  31.4164195  41.5429765  14.4365367  31.0330744  41.5224704
  13.8840125  31.5878838  41.5726750   4.5580735  29.1669715  47.3143820
   3.6926255  29.1555405  47.2026591   4.6579551  28.9799938  48.1614959
   4.4454902  29.1375776  47.4232764  20.5483665  30.6403396  52.1276580
  20.9738737  30.1177818  51.5747005  20.1840585  31.2384233  51.6065203
  20.5570268  30.6513623  51.9685589  10.1837745  38.9367613  50.8873925
  10.4984304  39.7504002  50.8951707  10.5931158  38.5517832  51.5556084
  10.2905843  38.9996316  50.9878017  17.1362265  34.3537660  48.4577737
  17.6073443  35.0677923  48.6267722  17.4722443  33.7536410  48.9937607
  17.2557380  34.3709124  48.5610113  19.2239249  35.9638973  60.6369809
  19.3336215  35.1747534  60.9926556  19.5530146  35.8744910  59.8344147
  19.2891655  35.8344826  60.5712200  14.0531760  19.1265131  55.4135832
  14.1859665  18.3296124  55.7416807  14.4376912  19.6531534  55.9934108
  14.1288088  19.0865047  55.5479335  17.7736211  34.1455594  55.2205430
  17.2257157  33.5213478  54.9525495  18.2349240  34.3349866  54.5049509
  17.7603420  34.0814644  55.0755861  17.1264115  16.0495457  52.0116925
  16.3210078  15.9393186  52.3284764  16.9970850  16.1507912  51.1546791
  16.9884248  16.0479127  51.9324966  20.5830075  22.2140949  52.6056622
  19.9993064  22.7150155  52.1934189  20.9034369  21.7070505  51.9720945
  20.5443251  22.2132784  52.4515129  13.1224874  21.1281544  42.8815297
  13.9440569  21.2979856  42.6396992  12.6594525  21.2828804  42.1581594
  13.1756037  21.1763276  42.7386941  11.7120206  19.1224306  53.6613726
  12.2564619  18.7815433  54.2518067  11.7657142  19.9809767  53.8035010
  11.8009326  19.1979565  53.7695599   7.5250765  32.8840722  50.5352534
   8.1295623  32.8436556  49.9066354   7.3178078  33.7311874  50.5656589
   7.5839662  33.0028724  50.4468650  17.3394537  35.1506667  51.7514771
  18.1592911  35.0069633  52.0131066  17.0588615  35.7752866  52.2931209
  17.4191281  35.2217019  51.8702710   2.7602047  31.8675339  50.4051457
   2.6626325  31.0571611  50.7141513   3.5430917  31.8467133  50.0197725
   2.8618184  31.7442429  50.3938320  27.0107873  41.8947170  49.4710578
  26.1545768  42.0555668  49.5219695  27.0575526  41.0239234  49.4915639
  26.8906984  41.7897972  49.4816644  21.3949012  51.4309888  45.2347809
  20.6431912  51.0525426  45.0063854  21.8435024  51.4628321  44.4866620
  21.3498679  51.3795495  45.0905311  30.3201589  48.1633695  59.0771034
  31.0268356  47.6685726  59.2057968  30.5089524  48.6042777  58.3473692
  30.4529495  48.1552046  58.9880079  26.8473972  51.8535257  40.6633356
  26.5125341  52.5312179  40.2277579  27.3600843  51.4640568  40.0750228
  26.8739553  51.8959835  40.5120148  26.3878263  53.8049526  46.6044468
  26.7717643  54.3736424  46.0649243  26.3237405  53.0799036  46.1250284
  26.4351691  53.7824989  46.4538331  29.8559694  43.9539214  52.1142229
  30.4015654  44.6324300  52.1736199  29.7976570  43.8126674  51.2543811
  29.9275608  44.0331215  51.9954290  22.9733768  51.4428280  47.5010582
  23.0744131  50.6328634  47.8107710  22.3775514  51.3485226  46.8710260
  22.9006307  51.3093308  47.4536820  22.8134508  56.3605869  48.9025438
  23.4571963  56.8019033  49.2921596  23.1390764  55.5559295  48.8155697
  22.9566337  56.3071064  48.9470915  16.1698813  47.4648566  47.1262915
  15.9348997  46.6316219  47.0195184  16.3084453  47.7453232  46.3124116
  16.1554475  47.3832070  46.9905270  18.4688900  39.6334297  50.0247223
  17.8493932  39.0426944  49.8557238  18.3672764  40.2245732  49.3911546
  18.3626576  39.6338379  49.9052213  23.5155088  49.3717844  44.2745300
  23.8370929  49.9123051  43.6706608  24.1627184  48.8014615  44.4067589
  23.6581143  49.3677019  44.2052335  18.1958033  43.1786579  52.2690792
  18.0716730  43.7649024  52.9040611  18.8476318  42.6846774  52.5703067
  18.2731682  43.1925383  52.4076721  25.7544731  47.7604284  44.3459478
  26.1938367  47.1521384  44.7914251  25.6049394  47.3811657  43.5744943
  25.7966197  47.6142755  44.2978645  23.2216374  46.3548295  51.5478303
  23.8665377  45.8620739  51.2289252  23.4618151  46.4973082  52.3744382
  23.3526959  46.3025738  51.6227836  25.7602466  49.2003201  51.1985196
  26.0425708  48.4054607  50.9771952  26.4888626  49.6783789  51.2190257
  25.9092029  49.1537798  51.1688211  23.7383659  36.7426235  48.4400961
  23.4086989  37.1937379  47.7704660  23.0628661  36.6642399  48.9873967
  23.5894096  36.7977370  48.4224184  17.7316137  52.3434237  48.4019122
  17.2483716  53.0684727  48.3778705  18.5439456  52.6410367  48.5129279
  17.7806885  52.4936591  48.4146401  23.8030291  51.1366418  51.0068936
  23.2857233  50.7773833  50.4030244  24.5004683  50.6128592  51.0175002
  23.8295873  51.0064106  50.9199195  27.4593883  51.5861232  56.9685109
  27.5477229  51.3987372  57.8163319  27.8883596  50.9398661  56.5689956
  27.5355986  51.4624239  57.0356861  25.0264343  50.8692392  55.9502771
  24.4635178  50.4565002  56.4742433  25.7885367  50.7945297  56.3695915
  25.0558792  50.7969792  56.0895772  20.5860335  52.8590413  48.5539401
  21.2880914  52.3442402  48.6112158  20.5057818  53.1864564  49.3586277
  20.6784095  52.8304639  48.6812194  21.6339241  43.0966000  57.6819817
  21.8059745  42.9871894  58.5305098  22.1708599  43.7420405  57.4451009
  21.7384245  43.1758002  57.7724913  19.9111110  49.0496765  48.0625010
  20.7500009  49.2819698  48.1098771  19.9422879  48.1801076  47.9932045
  20.0392828  48.9553711  48.0589654  20.5363813  49.4697640  52.3638315
  21.0762038  49.3268771  53.0341687  19.8533759  49.8694391  52.7322341
  20.5155967  49.5077311  52.5172737  27.5713943  51.0170251  59.6328893
  28.3554359  51.1301099  59.9984635  27.3710537  50.1911388  59.8287579
  27.6579968  50.9116970  59.7163279  15.9400958  45.6897931  52.5172737
  15.6739373  44.8737048  52.6763727  15.9539522  45.7351086  51.6468252
  15.9025680  45.5754836  52.4126219  20.6899565  39.2276309  55.1639744
  19.9971361  38.7573289  55.4100476  21.3059892  39.0014614  55.7381451
  20.6784094  39.1243441  55.2848897  27.7284336  52.9280353  53.2795348
  26.9299582  52.6879853  53.5369217  28.1770348  52.9794746  54.0262396
  27.6758947  52.9002744  53.4280273  27.0206023  48.9912969  39.5086303
  27.4357172  48.6597993  38.8170799  26.1897953  48.7581872  39.3806440
  26.9594032  48.9084225  39.3877150  16.3494372  46.4756710  49.7984481
  16.1669945  46.4503596  48.9456773  17.0844041  46.9455648  49.8373390
  16.4308436  46.5418073  49.6782399  19.4140123  43.1941713  56.3066589
  20.1380096  43.1794744  56.7931484  19.5156260  43.9037068  55.8088558
  19.5358333  43.2966416  56.3045376  26.7885073  46.6740798  61.1715537
  25.9958054  46.9884310  61.3568156  26.9034000  46.8892266  60.3336321
  26.6880483  46.7524634  61.0753871  27.7168866  46.5761002  56.1100833
  28.2907727  45.9388246  56.2649397  27.6383669  46.5765084  55.2410491
  27.7902101  46.4826113  56.0047244  16.3165282  43.3550211  49.9483547
  16.8938785  43.2186662  50.5875793  15.6179344  42.8985995  50.2029132
  16.2986304  43.2672477  50.0805837  23.0732584  45.0084267  48.1622031
  22.8151829  44.1756002  48.1353330  23.1281067  45.2341880  47.3214531
  23.0432362  44.9182038  48.0342167  28.1533634  37.1112717  48.2626123
  27.4489961  36.6221903  48.4210042  28.2018609  37.1235192  47.3914568
  28.0563686  37.0402365  48.1565463  22.0467296  42.5622029  48.6486925
  21.4716888  42.7214197  49.2850886  21.6702973  41.9257438  48.1855376
  21.9070109  42.4919842  48.6741484  25.7140585  41.0345378  53.5079304
  25.3255018  40.6099596  52.8531495  25.0495283  41.2827528  54.0156330
  25.5587513  41.0084099  53.4867172  11.7924115  42.2062104  46.6631366
  11.8784367  41.8293972  47.4444896  12.4199913  41.8322550  46.1851324
  11.8980666  42.0947586  46.7076843  33.0389013  47.9469979  56.1185686
  32.8027651  47.1158044  55.9997747  33.6832242  47.8955586  56.7040531
  33.0983684  47.8167667  56.1871580  22.6887432  48.7365500  46.8328423
  23.3261379  48.4977248  47.3780216  23.1142503  48.9402659  46.0981583
  22.8463598  48.7316511  46.8045580  17.3800074  50.9753837  50.7162727
  17.4204219  51.2468688  49.8882506  17.9394598  51.4995745  51.1320515
  17.4683420  51.0929592  50.6554615  23.4958787  37.2374205  60.8865896
  23.1812228  38.0073768  60.6235459  23.1748720  36.6744461  60.3018123
  23.4017706  37.2684474  60.7607246  34.0625434  47.7314428  52.1813981
  33.7571251  48.4642485  52.5427297  33.3431650  47.3252357  51.9006767
  33.9112776  47.7796161  52.1927118  25.0708904  49.2137923  48.5122209
  25.1447912  49.0513095  49.3664059  25.8878410  49.4028113  48.2682691
  25.2025262  49.2174665  48.6020235  18.8314660  49.5595786  45.5416653
  18.0052778  49.8057523  45.4150931  18.8926651  49.4807867  46.4078711
  18.7188827  49.5840735  45.6505597  30.1723573  35.7742586  54.8323415
  30.9177165  35.5852397  54.4186840  29.7560877  36.3000824  54.2737271
  30.2208547  35.8244732  54.6887988  23.6113489  52.1772666  43.2435683
  23.9011788  51.7861647  42.5194909  24.3416970  52.3589371  43.6840958
  23.7620373  52.1466480  43.2018490  24.2008234  46.9790412  54.3288813
  23.7019928  47.6906180  54.4073701  25.0108459  47.2991079  54.2906975
  24.2464341  47.1317261  54.3345382  21.5519405  54.1540049  46.3095832
  21.3319700  53.8637403  47.1022499  21.3313927  53.4955004  45.7813745
  21.4866999  54.0139757  46.3484741  20.4636352  46.2413365  48.5751534
  20.1749601  45.6150836  49.1097261  21.3319700  46.1833652  48.6416214
  20.5496604  46.1400909  48.6642488  23.7187361  55.5269438  45.0926525
  24.3711419  54.9945881  45.3217551  23.0212969  55.1738091  45.4794399
  23.7118079  55.3958961  45.1838692  20.6668625  47.8808616  44.4993899
  21.4214593  48.2621655  44.7129362  20.0739238  48.3319760  44.9540595
  20.6905339  48.0037443  44.5976777  31.7127279  47.8473853  44.4357504
  32.2785312  48.5067062  44.3516047  31.0655182  48.1923551  44.9073906
  31.7006035  47.9955794  44.4930260  23.1275292  39.8371456  59.6251111
  22.3175068  40.1429236  59.5140954  23.6049979  40.5577039  59.7403695
  23.0778771  39.9886058  59.6258182  21.9866852  49.0517177  49.8734014
  21.4647606  49.1917469  50.5585879  22.3740872  48.2927842  50.0636132
  21.9670553  48.9602701  50.0035091  28.1833857  50.7912637  43.8594583
  27.9420533  50.0580497  43.4521648  28.3635190  51.3399494  43.2060916
  28.1741481  50.7635028  43.7024806  23.4133178  46.0821196  45.2715505
  23.2175960  46.6895931  44.6775808  23.6367523  45.3889140  44.7907179
  23.4167819  46.0698722  45.1131586  29.7705215  39.3039733  50.7693059
  28.9316316  39.3301012  50.5331322  29.8409583  39.9510469  51.3498405
  29.6573609  39.4035859  50.8202176  19.4619324  45.3734007  54.4950514
  19.9740421  45.6518260  53.8459273  19.1755667  46.1123301  54.8613327
  19.4954188  45.5236360  54.4540392  22.9803050  37.4660395  54.5551555
  22.7886247  37.4815530  55.4050979  23.8301646  37.6624070  54.5318210
  23.0778772  37.4974747  54.6774850  17.3649963  39.9951377  52.5335372
  17.2235455  39.1435318  52.6579880  17.6490526  40.0380038  51.7097578
  17.3857809  39.8751127  52.4302996  31.4136604  48.5401826  50.4666641
  31.2750963  49.2382872  50.9715384  30.6336602  48.3850483  50.1102823
  31.2779831  48.6201993  50.4892915  29.7514689  44.8398202  56.7189023
  29.7462728  43.9678018  56.7231449  30.4575683  45.0386371  56.2458479
  29.8559693  44.7402076  56.6496058  23.4785582  44.5675186  56.0902843
  23.6228958  45.1476394  55.4545953  23.8261231  44.9451482  56.7952698
  23.5513044  44.7095890  56.1001838  25.6505500  43.7665354  53.8727975
  24.9028814  43.9596368  53.4676253  25.8047025  42.9410574  53.6352096
  25.5627927  43.6730465  53.7773380  22.5513337  52.7577957  52.9563870
  22.7002901  52.1980873  52.3037274  23.3313339  52.8369959  53.3396389
  22.6887431  52.6863523  52.9160819  25.0766638  52.9292600  54.2348361
  25.0010309  52.2601411  54.7899149  25.0056497  53.6310389  54.7489027
  25.0547245  52.9337508  54.3925209  25.8907277  37.6615905  54.7623378
  26.3479891  38.3939879  54.8896171  25.9663606  37.2382370  55.5210634
  25.9698247  37.7073143  54.8924455  18.1340268  37.9081724  55.8512822
  17.5982457  37.2962083  56.1673589  18.1958033  38.4829860  56.5046489
  18.0635901  37.9028652  55.9948249  25.7336885  51.4493599  45.0671967
  26.4986776  51.1803243  44.7454631  25.6314975  50.9643610  45.7842029
  25.8318380  51.3383164  45.1251794  23.7689655  39.6518009  51.6065202
  22.9785729  39.4709469  51.9282538  24.1650278  38.8744961  51.5895497
  23.7106531  39.5105470  51.6517751  29.1533341  47.2860439  49.3324648
  28.4778343  47.0545671  49.8338035  29.1625717  46.6781622  48.7066753
  29.0551846  47.1619364  49.3140801  26.2827485  42.1278268  56.0888701
  26.2186626  42.9888224  55.9608838  26.4224673  41.8110261  55.2884253
  26.2942955  42.2078434  55.9516914  31.1550076  50.1425571  41.5634826
  31.2369913  50.9492557  41.2396277  31.6399818  50.1621530  42.2875600
  31.2387233  50.2646234  41.6221725  24.9646579  44.8210407  50.2304904
  24.5408828  45.0214906  49.4943923  24.7891434  43.9739255  50.3429204
  24.8757459  44.7259189  50.1378594  24.4658272  56.3360920  52.6926362
  24.9554203  55.6371709  52.5102026  23.8942505  56.0384790  53.2802419
  24.4542802  56.1887144  52.7527402  20.2529024  45.3162459  45.6632877
  20.4093643  45.2509261  46.5188869  20.5929617  46.0911011  45.4511556
  20.3262259  45.4211657  45.7587471  30.6625276  48.9022989  61.6453152
  31.4760141  48.6308138  61.8058285  30.5020242  48.6030529  60.8413348
  30.7595224  48.8177916  61.5498558  24.9594618  50.0837694  41.8166268
  25.0287438  49.2252232  41.9559268  25.7383073  50.3009575  41.4885293
  25.0847468  49.9890558  41.7883425  27.9397438  39.5856647  54.5848540
  28.1539407  38.9467561  54.0311894  27.3231337  40.0302471  54.1556402
  27.8802767  39.5566790  54.4398972  29.3502106  52.5075395  46.0302761
  28.9581897  52.2042110  45.3125627  29.5055178  53.3444485  45.8407715
  29.3155696  52.5859232  45.8959258  16.8263285  42.4997409  45.9793644
  17.2062250  42.9181954  45.3153911  16.2518650  43.0810865  46.2862487
  16.7974610  42.6475268  45.9270385  30.1036526  41.1945712  55.5231848
  29.2913208  40.8871602  55.6045020  30.5626460  40.7144712  56.0874560
  30.0516911  41.0782204  55.6186442  29.5141781  49.0725384  45.9708792
  29.1556435  49.2440027  46.7472824  29.0280491  49.5338589  45.4136790
  29.3900477  49.1664355  46.0034061  27.1990033  42.6005783  60.3060550
  27.6689665  43.2247900  60.6928424  27.2451914  41.9322759  60.8653765
  27.2757909  42.5940464  60.4460621  24.3561307  34.7062811  51.0309354
  23.8399796  34.0143002  51.1560933  23.7955236  35.3733588  50.9771952
  24.1967820  34.7026068  51.0415420  26.4253540  35.2455771  52.8602206
  26.0385294  35.2704802  53.6415736  25.9386478  34.6797449  52.4076723
  26.2966049  35.1651522  52.9090110  30.6746520  49.9629280  56.9175993
  31.3126240  49.4689475  56.5838449  30.0320611  49.8906680  56.3328220
  30.6740746  49.8788288  56.7818348  25.8924597  36.9193951  57.4238878
  26.7198026  36.6479100  57.4797492  25.9132443  37.7154793  57.7802696
  26.0177447  36.9973705  57.4854061  30.7300776  50.6549088  53.5581349
  31.5193155  50.3038153  53.6783431  30.9044374  51.4685476  53.2957983
  30.8721058  50.7234945  53.5369217  20.4694087  44.0657814  50.6109138
  19.6282093  43.9661688  50.8188032  20.6784095  44.8353294  50.9623459
  20.3758779  44.1649857  50.6936453  17.9469654  41.6877351  48.4393889
  17.5526352  41.7620363  47.6643999  17.3909771  42.0735297  48.9902251
  17.8072466  41.7559125  48.4061549  24.2810752  41.9939213  49.8606736
  23.9773889  41.4395201  50.4617144  23.5790173  42.1731423  49.3734770
  24.1326962  41.9383995  49.8776441  22.3429103  49.2088934  54.5678834
  22.2349458  49.2190996  55.4340892  22.5524884  50.0343714  54.3783787
  22.3579214  49.3330008  54.6682925  20.3602895  46.4601576  52.0300771
  19.7690828  47.1011074  52.0003786  21.1223918  46.8839193  52.0032071
  20.3851155  46.6177415  52.0215918  20.7563518  37.6203574  52.6968789
  21.2164999  37.6942503  53.4343913  20.8019624  38.4184828  52.3468610
  20.8314073  37.7497721  52.7541545  22.4046867  38.2870269  57.2640816
  22.0132432  37.6403616  57.6996594  22.5732730  38.8781704  57.8835071
  22.3717778  38.2784537  57.4203522  36.4793316  46.2907346  53.0278049
  36.5376440  46.7393995  53.7738026  35.8459784  46.7006159  52.5908129
  36.3944611  46.4181080  53.0730598  30.1192411  51.9110888  49.4632796
  29.9212100  52.4001702  48.7689007  29.4980122  52.1152129  50.0416929
  29.9979975  52.0127426  49.4456019  27.1678265  39.2521258  49.7036959
  26.6938219  38.7263020  50.2142270  27.5396401  38.7050731  49.1351821
  27.1528154  39.0937254  49.6952106  17.5451295  41.2492765  55.0720505
  18.4076908  41.1488474  54.9857835  17.2143078  40.6687474  54.5106077
  17.6236492  41.1484391  54.9765911  33.4314996  44.3123633  51.1143740
  33.1913219  43.4730049  51.1186166  33.9107003  44.3923800  51.8384513
  33.4667179  44.2005033  51.2218542  32.0366213  45.4775040  54.9978044
  32.7600412  45.0247566  54.8189064  31.7716175  45.7579706  54.2150372
  32.1047486  45.4526008  54.8556759  20.9053081  40.0735214  51.7330923
  20.2806151  40.0853605  51.1256876  20.5698676  40.5495389  52.3822163
  20.7638573  40.1453731  51.7387492  17.6178757  48.1335674  53.1734688
  17.0878681  47.4428113  53.2229662  17.8903850  48.1245859  52.3447396
  17.5803479  48.0302805  53.0582103  28.6498847  48.7161376  41.8972370
  29.3733046  49.1819489  41.7536943  28.2099438  48.7834986  41.1469967
  28.6914540  48.7945213  41.7657152  27.8185002  45.5758918  53.1473059
  27.2041996  45.0316969  53.4421694  28.3352287  45.0623155  52.6678875
  27.8040665  45.4195327  53.1197288  27.0581300  46.6463188  50.8817358
  26.6308908  46.0212907  50.4482793  27.0506244  46.3638110  51.7076365
  26.9940441  46.5115969  50.9397185  20.1743827  41.6828361  53.9505792
  20.3337313  40.9271685  54.3557514  19.9936720  42.2319301  54.6046529
  20.1709186  41.6522175  54.1068498  25.3867009  37.5231943  51.0959892
  25.4109496  36.9892055  50.4072672  25.6378483  37.0149252  51.7585482
  25.4276928  37.3692847  51.0924536  12.8974599  44.8063438  50.5303036
  12.7918048  44.7610282  49.6655120  12.1474819  45.1517218  50.8117321
  12.7710202  44.8504346  50.4440366  21.6668332  36.2502761  50.4765636
  21.7066703  36.7511968  51.1900343  20.8417996  36.3413155  50.2071559
  21.5507857  36.3384577  50.5416174  23.8497944  45.8163501  58.5785931
  22.9993575  45.9535215  58.7143576  24.0126072  45.0827279  59.0233632
  23.7481808  45.7277602  58.6641530  23.0882695  42.7663271  52.7739535
  22.2574625  42.9337089  52.5674783  23.0334212  42.3899222  53.5588420
  22.9572110  42.7353002  52.8588063  20.8966478  36.2572164  58.4095946
  21.5219182  35.7134297  58.6825378  20.4416958  35.7767081  57.8403736
  20.9214739  36.1061645  58.3657540  34.4701527  44.4401451  53.5008594
  35.0619367  45.0798702  53.5326792  34.9060521  43.7424488  53.7900661
  34.6219958  44.4319801  53.5489426  26.2994917  48.8618823  54.1266488
  25.7920008  49.4154670  54.5707118  26.0021563  48.9227113  53.3085262
  26.1799802  48.9525134  54.0714944  28.4657099  37.2272143  52.9691151
  28.8912171  36.7744669  52.3574677  27.8514092  36.6732214  53.2455938
  28.4385744  37.0786119  52.9196176  17.9971949  44.1053814  43.9011776
  18.5064178  44.7018322  44.2823081  18.4706221  43.8379788  43.2188195
  18.1415325  44.1539630  43.8566298  28.9102697  52.7782081  42.0570431
  28.1932007  52.6042943  41.5917669  29.5609435  52.5434653  41.5245917
  28.9004548  52.7177873  41.9099649  25.5437402  53.7943381  51.0323495
  25.3203056  53.0362211  51.4007521  25.0547245  53.8241403  50.3103934
  25.4380851  53.6865606  50.9800236  29.6562062  41.3737922  52.6586952
  29.6359989  41.1921217  53.5121731  29.7041262  42.2449940  52.6346535
  29.6596703  41.4754460  52.7810246  27.6008391  47.9625114  58.5835428
  27.5604246  47.3174791  57.9980584  28.4131710  47.9061731  58.8960840
  27.7151545  47.8584080  58.5432377  24.1915859  54.0143840  48.4860579
  23.7776258  53.3517970  48.0964421  24.8763233  54.1621698  47.9656273
  24.2314231  53.9384498  48.3517076  27.5581153  53.1733925  49.2384196
  27.1597436  53.2836195  48.4705016  26.9432373  53.3815991  49.8210756
  27.4080042  53.2207493  49.2115495  23.2886100  41.5922050  55.1385186
  22.7765003  40.9843233  55.4970217  23.1165596  42.3078643  55.6059162
  23.1875737  41.6085349  55.2601410  18.1351815  40.0359626  57.7887548
  17.9654405  40.6961000  57.2435754  17.6917765  40.2466187  58.5100037
  18.0451148  40.1645608  57.8149177  27.1655170  39.5146295  57.5787441
  27.7226601  39.2860104  56.9465907  26.8416235  40.2751960  57.3022654
  27.2001581  39.5930132  57.4443939  15.0353879  42.9406491  53.0476038
  14.4880599  42.2707137  53.1656906  15.8246258  42.5736339  53.1119505
  15.0706063  42.7871477  53.0744738  24.8838288  42.6013948  58.5439449
  25.6349615  42.9165625  58.8579003  25.0760864  42.3993119  57.7173370
  25.0229702  42.6181330  58.4682844  13.7940849  42.1527299  50.2022061
  13.6162610  41.7003908  50.9276976  13.5059871  42.9553460  50.3860538
  13.7253802  42.2049857  50.3365563  29.4564430  43.4085016  49.4399451
  29.9518095  42.6908011  49.4003471  28.6464206  43.1055814  49.3253938
  29.4108323  43.2582663  49.4173177  24.9023041  47.2582829  41.5896455
  24.0934364  46.9349503  41.5429765  25.4097950  46.5516052  41.5224704
  24.8572708  47.1064146  41.5726750  15.5313319  44.6855023  47.3143820
  14.6658838  44.6740713  47.2026591  15.6312135  44.4985245  48.1614959
  15.4187486  44.6561084  47.4232764  31.5216249  46.1588704  52.1276580
  31.9471320  45.6363126  51.5747005  31.1573169  46.7569541  51.6065203
  31.5302851  46.1698931  51.9685589  21.1570329  54.4552921  50.8873925
  21.4716888  55.2689310  50.8951707  21.5663742  54.0703140  51.5556084
  21.2638427  54.5181624  50.9878017  28.1094848  49.8722968  48.4577737
  28.5806026  50.5863231  48.6267722  28.4455027  49.2721718  48.9937607
  28.2289963  49.8894432  48.5610113  30.1971833  51.4824281  60.6369809
  30.3068798  50.6932842  60.9926556  30.5262729  51.3930218  59.8344147
  30.2624239  51.3530134  60.5712200  25.0264343  34.6450439  55.4135832
  25.1592249  33.8481432  55.7416807  25.4109496  35.1716842  55.9934108
  25.1020672  34.6050355  55.5479335  28.7468795  49.6640902  55.2205430
  28.1989741  49.0398786  54.9525495  29.2081823  49.8535174  54.5049509
  28.7336004  49.5999952  55.0755861  22.6852790  34.6409614  53.6613726
  23.2297203  34.3000740  54.2518067  22.7389726  35.4995075  53.8035010
  22.7741909  34.7164873  53.7695599  18.4983349  48.4026030  50.5352534
  19.1028206  48.3621864  49.9066354  18.2910661  49.2497182  50.5656589
  18.5572246  48.5214032  50.4468650  28.3127121  50.6691975  51.7514771
  29.1325495  50.5254941  52.0131066  28.0321199  51.2938174  52.2931209
  28.3923864  50.7402327  51.8702710  13.7334631  47.3860647  50.4051457
  13.6358909  46.5756919  50.7141513  14.5163501  47.3652441  50.0197725
  13.8350767  47.2627737  50.3938320  37.9840456  57.4132478  49.4710578
  37.1278352  57.5740976  49.5219695  38.0308110  56.5424542  49.4915639
  37.8639568  57.3083279  49.4816644  32.3681596  66.9495195  45.2347809
  31.6164495  66.5710734  45.0063854  32.8167607  66.9813629  44.4866620
  32.3231263  66.8980803  45.0905311  41.2934173  63.6819003  59.0771034
  42.0000940  63.1871034  59.2057968  41.4822108  64.1228085  58.3473692
  41.4262078  63.6737354  58.9880079  37.8206556  67.3720565  40.6633356
  37.4857924  68.0497487  40.2277579  38.3333426  66.9825876  40.0750228
  37.8472137  67.4145143  40.5120148  37.3610847  69.3234834  46.6044468
  37.7450226  69.8921732  46.0649243  37.2969988  68.5984344  46.1250284
  37.4084274  69.3010297  46.4538331  40.8292277  59.4724521  52.1142229
  41.3748237  60.1509608  52.1736199  40.7709153  59.3311982  51.2543811
  40.9008191  59.5516523  51.9954290  33.9466352  66.9613588  47.5010582
  34.0476715  66.1513942  47.8107710  33.3508097  66.8670534  46.8710260
  33.8738891  66.8278616  47.4536820  42.6057346  60.9009129  42.9875957
  42.4896872  61.6516815  43.4168095  43.4013232  60.6433082  43.2372044
  42.7061935  60.9743975  43.0880049  33.7867092  71.8791177  48.9025438
  34.4304547  72.3204341  49.2921596  34.1123347  71.0744603  48.8155697
  33.9298920  71.8256371  48.9470915  27.1431396  62.9833874  47.1262915
  26.9081581  62.1501527  47.0195184  27.2817037  63.2638540  46.3124116
  27.1287059  62.9017378  46.9905270  29.4421484  55.1519605  50.0247223
  28.8226515  54.5612252  49.8557238  29.3405347  55.7431040  49.3911546
  29.3359159  55.1523687  49.9052213  34.4887671  64.8903152  44.2745300
  34.8103512  65.4308359  43.6706608  35.1359768  64.3199923  44.4067589
  34.6313726  64.8862327  44.2052335  29.1690617  58.6971886  52.2690792
  29.0449314  59.2834332  52.9040611  29.8208901  58.2032082  52.5703067
  29.2464266  58.7110691  52.4076721  36.7277315  63.2789592  44.3459478
  37.1670950  62.6706692  44.7914251  36.5781978  62.8996965  43.5744943
  36.7698780  63.1328063  44.2978645  34.1948958  61.8733603  51.5478303
  34.8397960  61.3806047  51.2289252  34.4350735  62.0158390  52.3744382
  34.3259543  61.8211046  51.6227836  36.7335049  64.7188509  51.1985196
  37.0158292  63.9239915  50.9771952  37.4621209  65.1969097  51.2190257
  36.8824613  64.6723106  51.1688211  40.3286651  61.6316773  41.2990247
  40.2437946  62.4877740  41.4439816  40.8171035  61.3561097  41.9672406
  40.3875549  61.7174094  41.4192329  46.7153137  63.8247871  48.1721027
  45.8850841  64.0358515  48.3354443  46.6662390  62.9984926  47.8963310
  46.5859873  63.7337478  48.1558392  33.1504692  62.1464784  41.5995450
  32.5661908  62.6514815  42.0061314  32.7474787  61.9207171  40.8592042
  33.0043996  62.1873032  41.5500475  28.7048721  67.8619545  48.4019122
  28.2216299  68.5870035  48.3778705  29.5172039  68.1595675  48.5129279
  28.7539469  68.0121899  48.4146401  34.7762875  66.6551726  51.0068936
  34.2589817  66.2959141  50.4030244  35.4737266  66.1313900  51.0175002
  34.8028456  66.5249414  50.9199195  38.4326467  67.1046540  56.9685109
  38.5209813  66.9172680  57.8163319  38.8616180  66.4583969  56.5689956
  38.5088569  66.9809547  57.0356861  35.9996927  66.3877700  55.9502771
  35.4367762  65.9750309  56.4742433  36.7617950  66.3130605  56.3695915
  36.0291375  66.3155100  56.0895772  31.5592918  68.3775721  48.5539401
  32.2613497  67.8627710  48.6112158  31.4790401  68.7049872  49.3586277
  31.6516679  68.3489947  48.6812194  46.2107096  56.4718272  51.9671448
  45.3735517  56.5420459  52.2019042  46.1795327  56.4742767  51.0945750
  46.0825378  56.4828499  51.8730996  32.6071825  58.6151308  57.6819817
  32.7792328  58.5057202  58.5305098  33.1441182  59.2605713  57.4451009
  32.7116829  58.6943309  57.7724913  31.2729262  52.7294151  40.6202022
  31.0904835  52.9466031  39.7943014  32.1354875  52.8433163  40.6760636
  31.3733851  52.7784049  40.5056509  30.8843694  64.5682073  48.0625010
  31.7232593  64.8005006  48.1098771  30.9155463  63.6986384  47.9932045
  31.0125411  64.4739019  48.0589654  31.5096397  64.9882948  52.3638315
  32.0494622  64.8454079  53.0341687  30.8266343  65.3879699  52.7322341
  31.4888551  65.0262619  52.5172737  40.9337282  60.6673949  47.5583339
  41.6894797  61.1005463  47.5972248  41.0399606  60.0178718  48.1317975
  41.0607452  60.6351433  47.6481365  43.9717453  64.4947226  48.3085742
  43.5352685  64.4983968  49.0644714  43.6380368  65.1752725  47.8765320
  43.8580073  64.5959682  48.3566575  38.5446526  66.5355559  59.6328893
  39.3286943  66.6486407  59.9984635  38.3443121  65.7096696  59.8287579
  38.6312552  66.4302278  59.7163279  26.9133542  61.2083239  52.5172737
  26.6471957  60.3922356  52.6763727  26.9272106  61.2536394  51.6468252
  26.8758264  61.0940144  52.4126219  43.8914936  51.5361054  50.5515170
  44.5340844  51.6059158  51.1377086  44.1437956  50.8690277  50.0494712
  44.0237068  51.4487402  50.5642450  30.8191289  56.0068323  39.1324495
  30.1049466  55.7206503  39.5446927  31.3035257  56.3464949  39.7730882
  30.7850652  56.0149973  39.2880130  31.6632148  54.7461617  55.1639744
  30.9703945  54.2758597  55.4100476  32.2792475  54.5199922  55.7381451
  31.6516678  54.6428749  55.2848897  38.7016920  68.4465661  53.2795348
  37.9032165  68.2065161  53.5369217  39.1502931  68.4980054  54.0262396
  38.6491531  68.4188052  53.4280273  47.1061799  61.2128146  47.2005380
  47.7678233  60.6518814  47.1001288  46.4653211  60.7180177  47.5258071
  47.1090666  61.0564555  47.2337720  37.9938607  64.5098277  39.5086303
  38.4089755  64.1783301  38.8170799  37.1630536  64.2767179  39.3806440
  37.9326615  64.4269533  39.3877150  27.3226955  61.9942018  49.7984481
  27.1402529  61.9688904  48.9456773  28.0576624  62.4640956  49.8373390
  27.4041019  62.0603380  49.6782399  43.3926630  62.2293528  46.9417368
  43.6282219  62.3738727  46.1144219  43.5416193  62.9935936  47.3348882
  43.4492433  62.3632583  46.8780972  30.3872707  58.7127021  56.3066589
  31.1112679  58.6980052  56.7931484  30.4888844  59.4222376  55.8088558
  30.5090916  58.8151724  56.3045376  45.2217086  61.0695194  44.7786972
  45.5525303  61.6022834  44.1727067  45.7950174  61.1234082  45.4348923
  45.3550765  61.1564763  44.7864754  37.7617656  62.1926106  61.1715537
  36.9690637  62.5069618  61.3568156  37.8766584  62.4077574  60.3336321
  37.6613067  62.2709942  61.0753871  40.4348975  58.9160097  45.4610552
  40.5295830  59.6549391  45.9150178  39.8107819  58.4877572  45.8945117
  40.3558006  58.9621417  45.5918700  38.6901449  62.0946309  56.1100833
  39.2640311  61.4573554  56.2649397  38.6116253  62.0950392  55.2410491
  38.7634684  62.0011421  56.0047244  27.2897866  58.8735519  49.9483547
  27.8671368  58.7371970  50.5875793  26.5911927  58.4171303  50.2029132
  27.2718887  58.7857785  50.0805837  40.6871997  60.7608837  38.6947504
  40.6052159  60.8311024  39.5602491  41.3251717  61.3238581  38.5031245
  40.7691834  60.8547808  38.7937454  34.0465168  60.5269575  48.1622031
  33.7884412  59.6941309  48.1353330  34.1013651  60.7527188  47.3214531
  34.0164946  60.4367346  48.0342167  33.0199880  58.0807337  48.6486925
  32.4449471  58.2399505  49.2850886  32.6435556  57.4442746  48.1855376
  32.8802692  58.0105150  48.6741484  36.6873169  56.5530686  53.5079304
  36.2987601  56.1284904  52.8531495  36.0227867  56.8012836  54.0156330
  36.5320096  56.5269407  53.4867172  22.7656699  57.7247412  46.6631366
  22.8516951  57.3479280  47.4444896  23.3932496  57.3507857  46.1851324
  22.8713250  57.6132894  46.7076843  40.5099530  50.2505315  51.0203288
  40.8910042  49.5683486  51.4071162  39.7062814  49.9614917  50.8378953
  40.4475992  50.1072364  51.0507344  37.7912107  60.7829291  41.7056111
  38.6052746  61.0744184  41.5938882  37.7271248  60.1289153  41.1314404
  37.9014846  60.7294486  41.6044948  44.0121597  63.4655287  56.1185686
  43.7760234  62.6343352  55.9997747  44.6564826  63.4140894  56.7040531
  44.0716268  63.3352975  56.1871580  33.6620015  64.2550808  46.8328423
  34.2993962  64.0162556  47.3780216  34.0875087  64.4587967  46.0981583
  33.8196181  64.2501819  46.8045580  28.3532658  66.4939145  50.7162727
  28.3936803  66.7653996  49.8882506  28.9127182  67.0181053  51.1320515
  28.4416003  66.6114900  50.6554615  34.3022830  59.4753098  41.1703312
  34.6867983  59.2560805  41.9219857  34.0534451  60.3016044  41.3004389
  34.3224903  59.5651244  41.3004389  34.4691371  52.7559513  60.8865896
  34.1544812  53.5259076  60.6235459  34.1481303  52.1929769  60.3018123
  34.3750290  52.7869782  60.7607246  45.0358018  63.2499736  52.1813981
  44.7303835  63.9827793  52.5427297  44.3164233  62.8437665  51.9006767
  44.8845360  63.2981469  52.1927118  36.0441487  64.7323231  48.5122209
  36.1180495  64.5698403  49.3664059  36.8610993  64.9213421  48.2682691
  36.1757846  64.7359973  48.6020235  50.7359810  59.8892736  51.5082325
  50.6684310  59.9088696  50.6384912  50.7215472  60.7323064  51.7337996
  50.7238566  60.0166471  51.4134802  29.8047244  65.0781094  45.5416653
  28.9785361  65.3242831  45.4150931  29.8659235  64.9993175  46.4078711
  29.6921411  65.1026043  45.6505597  32.0223268  51.1450035  46.5012093
  31.1545693  51.2172634  46.5669702  32.3098472  51.9472114  46.6900068
  31.9363016  51.2744182  46.5386859  41.1456156  51.2927894  54.8323415
  41.8909748  51.1037705  54.4186840  40.7293461  51.8186132  54.2737271
  41.1941131  51.3430040  54.6887988  34.5846073  67.6957974  43.2435683
  34.8744371  67.3046955  42.5194909  35.3149554  67.8774679  43.6840958
  34.7352957  67.6651788  43.2018490  48.5218427  58.6637123  49.7828920
  49.0726349  58.0305192  50.0226012  48.5062543  59.1952515  50.4744424
  48.6003624  58.6486071  49.9207778  35.1740818  62.4975720  54.3288813
  34.6752512  63.2091488  54.4073701  35.9841042  62.8176387  54.2906975
  35.2196925  62.6502569  54.3345382  32.5251988  69.6725356  46.3095832
  32.3052284  69.3822711  47.1022499  32.3046510  69.0140312  45.7813745
  32.4599583  69.5325065  46.3484741  31.4368936  61.7598673  48.5751534
  31.1482184  61.1336144  49.1097261  32.3052284  61.7018960  48.6416214
  31.5229188  61.6586217  48.6642488  42.2246833  56.9033456  48.8933516
  41.8811599  56.1823792  49.2440765  42.3239876  56.6947308  48.0511874
  42.1888876  56.7657660  48.8205196  34.6919944  71.0454746  45.0926525
  35.3444002  70.5131189  45.3217551  33.9945553  70.6923399  45.4794399
  34.6850662  70.9144269  45.1838692  31.6401209  63.3993924  44.4993899
  32.3947177  63.7806963  44.7129362  31.0471822  63.8505068  44.9540595
  31.6637923  63.5222751  44.5976777  42.6859862  63.3659160  44.4357504
  43.2517895  64.0252370  44.3516047  42.0387766  63.7108859  44.9073906
  42.6738619  63.5141102  44.4930260  34.1007876  55.3556764  59.6251111
  33.2907652  55.6614544  59.5140954  34.5782563  56.0762347  59.7403695
  34.0511355  55.5071366  59.6258182  32.9599436  64.5702485  49.8734014
  32.4380189  64.7102777  50.5585879  33.3473456  63.8113150  50.0636132
  32.9403137  64.4788009  50.0035091  29.9490620  54.6208294  43.9428969
  29.6615415  54.2509565  43.2060916  30.6361088  55.0903149  43.6812674
  30.0079517  54.6355263  43.7944045  39.1566441  66.3097945  43.8594583
  38.9153117  65.5765805  43.4521648  39.3367773  66.8584802  43.2060916
  39.1474065  66.2820336  43.7024806  34.3865761  61.6006504  45.2715505
  34.1908544  62.2081239  44.6775808  34.6100107  60.9074448  44.7907179
  34.3900402  61.5884030  45.1131586  32.7844291  58.4861242  45.3896374
  33.5066943  58.6502400  44.9300180  32.3052284  59.2070907  45.2835714
  32.8208022  58.6159472  45.3061988  40.7437799  54.8225041  50.7693059
  39.9048899  54.8486320  50.5331322  40.8142166  55.4695777  51.3498405
  40.6306192  54.9221167  50.8202176  30.4351908  60.8919315  54.4950514
  30.9473005  61.1703568  53.8459273  30.1488251  61.6308609  54.8613327
  30.4686771  61.0421668  54.4540392  44.6195323  60.0293028  48.0554300
  44.5329297  60.1848454  48.9089079  44.1645803  60.6731103  47.6813705
  44.5398579  60.1468783  48.1261407  27.5218814  55.3989507  44.7914250
  27.6234951  56.2015668  45.1195226  28.3174701  55.1976842  44.4937331
  27.6546720  55.4875405  44.7949605  33.9535633  52.9845703  54.5551555
  33.7618830  53.0000838  55.4050979  34.8034229  53.1809378  54.5318210
  34.0511355  53.0160055  54.6774850  28.3382546  55.5136685  52.5335372
  28.1968038  54.6620625  52.6579880  28.6223110  55.5565345  51.7097578
  28.3590392  55.3936435  52.4302996  42.3869188  64.0587134  50.4666641
  42.2483547  64.7568180  50.9715384  41.6069185  63.9035791  50.1102823
  42.2512414  64.1387301  50.4892915  40.7247273  60.3583510  56.7189023
  40.7195311  59.4863326  56.7231449  41.4308267  60.5571679  56.2458479
  40.8292277  60.2587384  56.6496058  34.4518166  60.0860494  56.0902843
  34.5961542  60.6661702  55.4545953  34.7993815  60.4636790  56.7952698
  34.5245627  60.2281198  56.1001838  36.6238083  59.2850662  53.8727975
  35.8761397  59.4781676  53.4676253  36.7779609  58.4595882  53.6352096
  36.5360511  59.1915773  53.7773380  33.5245921  68.2763265  52.9563870
  33.6735485  67.7166181  52.3037274  34.3045923  68.3555267  53.3396389
  33.6620015  68.2048831  52.9160819  43.8822560  63.4165388  41.2283140
  43.5029369  62.6302526  41.2212430  43.2188806  63.9652245  41.0854785
  43.7281035  63.3810212  41.2063937  36.0499222  68.4477908  54.2348361
  35.9742893  67.7786719  54.7899149  35.9789081  69.1495696  54.7489027
  36.0279829  68.4522816  54.3925209  36.8639860  53.1801213  54.7623378
  37.3212474  53.9125187  54.8896171  36.9396189  52.7567678  55.5210634
  36.9430830  53.2258451  54.8924455  29.1072852  53.4267032  55.8512822
  28.5715041  52.8147391  56.1673589  29.1690616  54.0015168  56.5046489
  29.0368484  53.4213960  55.9948249  36.7069469  66.9678907  45.0671967
  37.4719360  66.6988551  44.7454631  36.6047559  66.4828918  45.7842029
  36.8050964  66.8568472  45.1251794  34.7422238  55.1703317  51.6065202
  33.9518313  54.9894777  51.9282538  35.1382861  54.3930269  51.5895497
  34.6839114  55.0290778  51.6517751  39.2288129  63.9991091  37.0471916
  39.9961114  64.0591216  36.6377768  38.7819438  63.4271532  36.5628235
  39.2761556  63.9227667  36.9149626  40.1265925  62.8045747  49.3324648
  39.4510926  62.5730979  49.8338035  40.1358301  62.1966930  48.7066753
  40.0284429  62.6804672  49.3140801  37.2560069  57.6463576  56.0888701
  37.1919210  58.5073532  55.9608838  37.3957256  57.3295569  55.2884253
  37.2675539  57.7263742  55.9516914  42.1282659  65.6610879  41.5634826
  42.2102497  66.4677865  41.2396277  42.6132401  65.6806838  42.2875600
  42.2119817  65.7831542  41.6221725  35.9379162  60.3395715  50.2304904
  35.5141412  60.5400214  49.4943923  35.7624018  59.4924563  50.3429204
  35.8490043  60.2444497  50.1378594  35.4390856  71.8546228  52.6926362
  35.9286786  71.1557017  52.5102026  34.8675088  71.5570098  53.2802419
  35.4275386  71.7072452  52.7527402  31.2261607  60.8347767  45.6632877
  31.3826227  60.7694569  46.5188869  31.5662201  61.6096319  45.4511556
  31.2994842  60.9396965  45.7587471  37.7640752  60.2105650  44.5326240
  38.3056298  59.7076031  44.9964861  38.0787311  60.1570845  43.7215725
  37.8905149  60.1285071  44.4810052  41.6357859  64.4208297  61.6453152
  42.4492725  64.1493446  61.8058285  41.4752826  64.1215837  60.8413348
  41.7327808  64.3363223  61.5498558  35.9327202  65.6023002  41.8166268
  36.0020022  64.7437540  41.9559268  36.7115657  65.8194882  41.4885293
  36.0580052  65.5075866  41.7883425  38.9130021  55.1041955  54.5848540
  39.1271991  54.4652869  54.0311894  38.2963921  55.5487778  54.1556402
  38.8535351  55.0752098  54.4398972  40.3234689  68.0260703  46.0302761
  39.9314481  67.7227418  45.3125627  40.4787762  68.8629793  45.8407715
  40.2888279  68.1044540  45.8959258  27.7995869  58.0182717  45.9793644
  28.1794834  58.4367262  45.3153911  27.2251234  58.5996173  46.2862487
  27.7707194  58.1660576  45.9270385  41.0769109  56.7131020  55.5231848
  40.2645791  56.4056910  55.6045020  41.5359044  56.2330020  56.0874560
  41.0249494  56.5967512  55.6186442  40.4874364  64.5910692  45.9708792
  40.1289019  64.7625335  46.7472824  40.0013075  65.0523897  45.4136790
  40.3633061  64.6849663  46.0034061  35.2762730  60.2709857  38.5109026
  35.5655254  61.0474740  38.7852601  35.3634528  59.7598589  39.2123526
  35.3316986  60.3101776  38.6551524  38.1722617  58.1191091  60.3060550
  38.6422248  58.7433208  60.6928424  38.2184497  57.4508067  60.8653765
  38.2490493  58.1125771  60.4460621  35.3293891  50.2248119  51.0309354
  34.8132379  49.5328310  51.1560933  34.7687819  50.8918896  50.9771952
  35.1700404  50.2211376  51.0415420  37.3986124  50.7641079  52.8602206
  37.0117877  50.7890110  53.6415736  36.9119061  50.1982757  52.4076723
  37.2698633  50.6836830  52.9090110  41.6479103  65.4814588  56.9175993
  42.2858824  64.9874783  56.5838449  41.0053195  65.4091988  56.3328220
  41.6473330  65.3973596  56.7818348  43.3736104  57.3303734  51.4841908
  42.9463712  57.2430082  50.7290008  42.7362157  57.4381509  52.0696752
  43.2165711  57.3336394  51.4587350  37.0643266  47.6508064  55.1512466
  37.6936384  48.1868364  54.8733536  37.2329128  47.5585423  56.0026032
  37.1821060  47.7169426  55.2360994  36.8657181  52.4379259  57.4238878
  37.6930610  52.1664408  57.4797492  36.8865027  53.2340101  57.7802696
  36.9910031  52.5159013  57.4854061  41.7033360  66.1734396  53.5581349
  42.4925738  65.8223461  53.6783431  41.8776958  66.9870784  53.2957983
  41.8453642  66.2420253  53.5369217  31.4426670  59.5843122  50.6109138
  30.6014677  59.4846996  50.8188032  31.6516678  60.3538602  50.9623459
  31.3491363  59.6835165  50.6936453  28.9202237  57.2062659  48.4393889
  28.5258935  57.2805670  47.6643999  28.3642354  57.5920605  48.9902251
  28.7805050  57.2744433  48.4061549  35.2543335  57.5124521  49.8606736
  34.9506473  56.9580509  50.4617144  34.5522756  57.6916731  49.3734770
  35.1059545  57.4569303  49.8776441  34.3109432  54.8225041  44.4251438
  34.5869167  54.1043953  44.0129005  34.9108102  55.4209961  44.2172544
  34.4402697  54.8045411  44.3332199  33.3161686  64.7274242  54.5678834
  33.2082041  64.7376304  55.4340892  33.5257468  65.5529022  54.3783787
  33.3311797  64.8515316  54.6682925  31.3335478  61.9786884  52.0300771
  30.7423412  62.6196382  52.0003786  32.0956502  62.4024501  52.0032071
  31.3583739  62.1362722  52.0215918  31.7296101  53.1388882  52.6968789
  32.1897583  53.2127811  53.4343913  31.7752208  53.9370136  52.3468610
  31.8046656  53.2683029  52.7541545  33.3779451  53.8055577  57.2640816
  32.9865016  53.1588924  57.6996594  33.5465314  54.3967012  57.8835071
  33.3450361  53.7969845  57.4203522  47.4525900  61.8092654  53.0278049
  47.5109024  62.2579302  53.7738026  46.8192367  62.2191467  52.5908129
  47.3677195  61.9366388  53.0730598  41.0924995  67.4296196  49.4632796
  40.8944683  67.9187010  48.7689007  40.4712706  67.6337437  50.0416929
  40.9712559  67.5312734  49.4456019  35.1532973  59.1981092  43.8043040
  35.8975018  59.5855369  44.0425990  35.2993669  58.3538518  43.9683528
  35.2843558  59.1311565  43.8637010  28.5183879  56.7678072  55.0720505
  29.3809492  56.6673782  54.9857835  28.1875662  56.1872782  54.5106077
  28.5969075  56.6669699  54.9765911  44.4047579  59.8308941  51.1143740
  44.1645802  58.9915357  51.1186166  44.8839587  59.9109108  51.8384513
  44.4399763  59.7190341  51.2218542  43.0098796  60.9960348  54.9978044
  43.7332995  60.5432874  54.8189064  42.7448759  61.2765014  54.2150372
  43.0780070  60.9711316  54.8556759  31.8785665  55.5920521  51.7330923
  31.2538735  55.6038913  51.1256876  31.5431260  56.0680697  52.3822163
  31.7371157  55.6639038  51.7387492  28.5911340  63.6520982  53.1734688
  28.0611265  62.9613420  53.2229662  28.8636434  63.6431167  52.3447396
  28.5536063  63.5488113  53.0582103  39.6231431  64.2346684  41.8972370
  40.3465630  64.7004797  41.7536943  39.1832022  64.3020294  41.1469967
  39.6647123  64.3130521  41.7657152  38.7917586  61.0944226  53.1473059
  38.1774579  60.5502276  53.4421694  39.3084871  60.5808463  52.6678875
  38.7773248  60.9380635  53.1197288  38.0313883  62.1648496  50.8817358
  37.6041491  61.5398215  50.4482793  38.0238828  61.8823418  51.7076365
  37.9673024  62.0301277  50.9397185  31.1476410  57.2013669  53.9505792
  31.3069897  56.4456993  54.3557514  30.9669304  57.7504609  54.6046529
  31.1441769  57.1707483  54.1068498  39.0896713  49.3674905  54.5056581
  38.5937275  49.5638579  53.8148148  39.8465775  49.7667573  54.3345383
  39.1283538  49.4552639  54.3776718  23.8707183  60.3248746  50.5303036
  23.7650632  60.2795590  49.6655120  23.1207403  60.6702526  50.8117321
  23.7442786  60.3689654  50.4440366  32.6400915  51.7688069  50.4765636
  32.6799287  52.2697276  51.1900343  31.8150580  51.8598463  50.2071559
  32.5240441  51.8569885  50.5416174  34.8230528  61.3348809  58.5785931
  33.9726159  61.4720523  58.7143576  34.9858656  60.6012587  59.0233632
  34.7214392  61.2462910  58.6641530  34.0615278  58.2848579  52.7739535
  33.2307208  58.4522397  52.5674783  34.0066796  57.9084530  53.5588420
  33.9304693  58.2538310  52.8588063  31.8699062  51.7757472  58.4095946
  32.4951765  51.2319605  58.6825378  31.4149542  51.2952389  57.8403736
  31.8947322  51.6246953  58.3657540  32.4351322  56.5604170  43.3029653
  32.5754283  57.0576635  44.0058294  32.9333855  55.8590465  43.4443866
  32.5292403  56.5306149  43.4281232  32.4651545  57.4271281  40.6322230
  33.0996624  58.0231706  40.5671691  32.5477156  57.1274739  41.4468100
  32.5708096  57.4712190  40.7425316  45.4434110  59.9586759  53.5008594
  46.0351951  60.5984009  53.5326792  45.8793105  59.2609795  53.7900661
  45.5952542  59.9505109  53.5489426  37.2727500  64.3804131  54.1266488
  36.7652591  64.9339978  54.5707118  36.9754147  64.4412421  53.3085262
  37.1532385  64.4710442  54.0714944  39.4389683  52.7457451  52.9691151
  39.8644754  52.2929977  52.3574677  38.8246676  52.1917521  53.2455938
  39.4118328  52.5971427  52.9196176  28.9704533  59.6239122  43.9011776
  29.4796762  60.2203630  44.2823081  29.4438805  59.3565096  43.2188195
  29.1147908  59.6724938  43.8566298  39.8835281  68.2967389  42.0570431
  39.1664590  68.1228251  41.5917669  40.5342018  68.0619961  41.5245917
  39.8737131  68.2363181  41.9099649  36.5169986  69.3128689  51.0323495
  36.2935640  68.5547519  51.4007521  36.0279829  69.3426711  50.3103934
  36.4113435  69.2050914  50.9800236  42.6311379  53.6287861  48.7102109
  42.9838989  53.2017584  49.3847908  41.7726181  53.5438705  48.8403186
  42.5560824  53.5532602  48.8297120  31.3295064  56.2595381  46.7684956
  30.6107053  56.6759513  47.0357820  31.7007427  56.8249619  46.2176594
  31.2786996  56.4044662  46.7267763  40.6294645  56.8923230  52.6586952
  40.6092572  56.7106525  53.5121731  40.6773846  57.7635248  52.6346535
  40.6329286  56.9939768  52.7810246  38.5740975  63.4810422  58.5835428
  38.5336830  62.8360099  57.9980584  39.3864293  63.4247039  58.8960840
  38.6884129  63.3769388  58.5432377  35.1648443  69.5329147  48.4860579
  34.7508841  68.8703278  48.0964421  35.8495817  69.6807006  47.9656273
  35.2046814  69.4569806  48.3517076  38.5313737  68.6919233  49.2384196
  38.1330020  68.8021503  48.4705016  37.9164956  68.9001299  49.8210756
  38.3812626  68.7392801  49.2115495  29.1084398  55.5544933  57.7887548
  28.9386989  56.2146308  57.2435754  28.6650348  55.7651495  58.5100037
  29.0183732  55.6830916  57.8149177  33.0344218  53.7949431  46.8314281
  33.5101584  54.1566511  46.1964463  32.5332817  54.4505899  47.1114424
  33.0309577  53.9443620  46.7791022  46.2655579  63.2671199  42.6227286
  46.6489185  64.0162556  42.8525383  45.4699693  63.5137019  42.3639275
  46.2049362  63.4140893  42.6184860  38.1387754  55.0331603  57.5787441
  38.6959184  54.8045412  56.9465907  37.8148819  55.7937268  57.3022654
  38.1734164  55.1115439  57.4443939  26.0086463  58.4591799  53.0476038
  25.4613182  57.7892445  53.1656906  26.7978841  58.0921647  53.1119505
  26.0438647  58.3056785  53.0744738  35.8570871  58.1199256  58.5439449
  36.6082198  58.4350933  58.8579003  36.0493448  57.9178427  57.7173370
  35.9962285  58.1366638  58.4682844  24.7673432  57.6712607  50.2022061
  24.5895193  57.2189216  50.9276976  24.4792455  58.4738768  50.3860538
  24.6986386  57.7235165  50.3365563  40.4297013  58.9270324  49.4399451
  40.9250679  58.2093319  49.4003471  39.6196789  58.6241122  49.3253938
  40.3840907  58.7767970  49.4173177  35.8755625  62.7768137  41.5896455
  35.0666948  62.4534811  41.5429765  36.3830534  62.0701360  41.5224704
  35.8305292  62.6249454  41.5726750  26.5045902  60.2040331  47.3143820
  25.6391422  60.1926021  47.2026591  26.6044718  60.0170553  48.1614959
  26.3920069  60.1746392  47.4232764  42.4948832  61.6774012  52.1276580
  42.9203904  61.1548434  51.5747005  42.1305752  62.2754849  51.6065203
  42.5035435  61.6884239  51.9685589  32.1302912  69.9738229  50.8873925
  32.4449471  70.7874618  50.8951707  32.5396326  69.5888448  51.5556084
  32.2371010  70.0366932  50.9878017  39.0827432  65.3908276  48.4577737
  39.5538610  66.1048539  48.6267722  39.4187610  64.7907026  48.9937607
  39.2022547  65.4079740  48.5610113  41.1704416  67.0009589  60.6369809
  41.2801382  66.2118150  60.9926556  41.4995313  66.9115525  59.8344147
  41.2356822  66.8715442  60.5712200  35.9996927  50.1635747  55.4135832
  36.1324832  49.3666740  55.7416807  36.3842080  50.6902150  55.9934108
  36.0753256  50.1235663  55.5479335  39.7201378  65.1826210  55.2205430
  39.1722324  64.5584094  54.9525495  40.1814407  65.3720482  54.5049509
  39.7068588  65.1185260  55.0755861  39.0729282  47.0866073  52.0116925
  38.2675246  46.9763802  52.3284764  38.9436017  47.1878528  51.1546791
  38.9349415  47.0849743  51.9324966  42.5295242  53.2511565  52.6056622
  41.9458231  53.7520771  52.1934189  42.8499537  52.7441121  51.9720945
  42.4908418  53.2503400  52.4515129  33.6585374  50.1594922  53.6613726
  34.2029787  49.8186048  54.2518067  33.7122309  51.0180383  53.8035010
  33.7474493  50.2350181  53.7695599  29.4715932  63.9211338  50.5352534
  30.0760790  63.8807172  49.9066354  29.2643245  64.7682490  50.5656589
  29.5304830  64.0399340  50.4468650  39.2859704  66.1877283  51.7514771
  40.1058078  66.0440249  52.0131066  39.0053782  66.8123482  52.2931209
  39.3656448  66.2587635  51.8702710  24.7067215  62.9045955  50.4051457
  24.6091493  62.0942227  50.7141513  25.4896084  62.8837749  50.0197725
  24.8083351  62.7813045  50.3938320  48.9573040  72.9317785  49.4710578
  48.1010935  73.0926284  49.5219695  49.0040693  72.0609849  49.4915639
  48.8372151  72.8268587  49.4816644  40.4154067  70.6704913  50.0247223
  39.7959099  70.0797560  49.8557238  40.3137931  71.2616348  49.3911546
  40.3091743  70.6708995  49.9052213  47.5121963  72.4104454  44.3579686
  48.2102128  72.5892582  44.8501150  47.8274295  71.8874794  43.7350076
  47.6617300  72.3598227  44.3381696  40.1423200  74.2157194  52.2690792
  40.0181897  74.8019640  52.9040611  40.7941485  73.7217390  52.5703067
  40.2196850  74.2295999  52.4076721  45.1681541  77.3918911  51.5478303
  45.8130544  76.8991354  51.2289252  45.4083318  77.5343698  52.3744382
  45.2992126  77.3396354  51.6227836  45.6848827  67.7796851  48.4400961
  45.3552157  68.2307995  47.7704660  45.0093828  67.7013014  48.9873967
  45.5359263  67.8347986  48.4224184  52.8925234  63.7682374  46.6850572
  52.5778675  64.4585853  47.1170994  52.3752176  63.7127156  45.9836072
  52.7689705  63.8617263  46.6447521  52.2337668  73.7686875  42.7987982
  51.7049140  73.9846508  43.4585288  52.7562688  74.4623013  42.7188951
  52.2326121  73.9030012  42.8843581  48.5814490  73.9115744  40.0764371
  48.8210494  74.1193728  39.2639714  48.9030331  73.1073252  40.1853315
  48.6651648  73.8229845  39.9724924  43.8904781  65.8409140  43.9223909
  44.6450749  66.2087457  43.6840959  43.7132315  66.2148694  44.6903088
  43.9759259  65.9507327  44.0008797  42.2461845  68.2479459  40.6202022
  42.0637418  68.4651339  39.7943014  43.1087458  68.3618471  40.6760636
  42.3466435  68.2969356  40.5056509  47.9261564  65.2505869  43.6551045
  48.6547725  65.0721824  43.2089202  48.0156457  66.0923949  43.8658224
  48.0468226  65.3489748  43.6204563  54.8647519  67.0546362  50.5515170
  55.5073428  67.1244466  51.1377086  55.1170540  66.3875585  50.0494712
  54.9969651  66.9672710  50.5642450  41.7923872  71.5253631  39.1324495
  41.0782049  71.2391811  39.5446927  42.2767841  71.8650257  39.7730882
  41.7583236  71.5335281  39.2880130  42.6364732  70.2646925  55.1639744
  41.9436528  69.7943905  55.4100476  43.2525059  70.0385230  55.7381451
  42.6249262  70.1614057  55.2848897  51.4081559  74.4345405  45.4610552
  51.5028413  75.1734699  45.9150178  50.7840403  74.0062880  45.8945117
  51.3290589  74.4806725  45.5918700  38.2630449  74.3920827  49.9483547
  38.8403952  74.2557278  50.5875793  37.5644511  73.9356611  50.2029132
  38.2451471  74.3043093  50.0805837  45.0197751  76.0454882  48.1622031
  44.7616996  75.2126617  48.1353330  45.0746234  76.2712495  47.3214531
  44.9897529  75.9552654  48.0342167  50.0998802  68.1483333  48.2626123
  49.3955128  67.6592519  48.4210042  50.1483776  68.1605808  47.3914568
  50.0028853  68.0772981  48.1565463  43.9932464  73.5992645  48.6486925
  43.4182055  73.7584813  49.2850886  43.6168140  72.9628054  48.1855376
  43.8535276  73.5290458  48.6741484  47.6605752  72.0715994  53.5079304
  47.2720185  71.6470212  52.8531495  46.9960451  72.3198144  54.0156330
  47.5052680  72.0454715  53.4867172  33.7389282  73.2432720  46.6631366
  33.8249534  72.8664588  47.4444896  34.3665080  72.8693165  46.1851324
  33.8445833  73.1318202  46.7076843  51.4832114  65.7690623  51.0203288
  51.8642626  65.0868794  51.4071162  50.6795398  65.4800225  50.8378953
  51.4208576  65.6257672  51.0507344  48.7644691  76.3014599  41.7056111
  49.5785329  76.5929492  41.5938882  48.7003832  75.6474461  41.1314404
  48.8747430  76.2479794  41.6044948  45.2755414  74.9938406  41.1703312
  45.6600567  74.7746113  41.9219857  45.0267034  75.8201351  41.3004389
  45.2957486  75.0836552  41.3004389  42.9955851  66.6635343  46.5012093
  42.1278277  66.7357942  46.5669702  43.2831055  67.4657422  46.6900068
  42.9095599  66.7929490  46.5386859  52.1188740  66.8113202  54.8323415
  52.8642332  66.6223013  54.4186840  51.7026045  67.3371440  54.2737271
  52.1673714  66.8615348  54.6887988  53.1979417  72.4218764  48.8933516
  52.8544183  71.7009099  49.2440765  53.2972460  72.2132615  48.0511874
  53.1621460  72.2842968  48.8205196  40.9223203  70.1393602  43.9428969
  40.6347999  69.7694872  43.2060916  41.6093671  70.6088457  43.6812674
  40.9812101  70.1540571  43.7944045  43.7576875  74.0046550  45.3896374
  44.4799527  74.1687708  44.9300180  43.2784868  74.7256215  45.2835714
  43.7940605  74.1344780  45.3061988  51.7170382  70.3410349  50.7693059
  50.8781483  70.3671628  50.5331322  51.7874750  70.9881084  51.3498405
  51.6038776  70.4406475  50.8202176  50.1639661  67.2395726  45.5020675
  50.8666013  67.0403474  45.0240633  49.8983849  66.4671668  45.8089518
  50.2286293  67.0958692  45.4766116  38.4951398  70.9174815  44.7914250
  38.5967534  71.7200976  45.1195226  39.2907285  70.7162150  44.4937331
  38.6279303  71.0060713  44.7949605  44.9268217  68.5031011  54.5551555
  44.7351414  68.5186146  55.4050979  45.7766813  68.6994686  54.5318210
  45.0243939  68.5345362  54.6774850  39.3115130  71.0321993  52.5335372
  39.1700622  70.1805933  52.6579880  39.5955693  71.0750653  51.7097578
  39.3322976  70.9121743  52.4302996  49.4653722  72.8689083  46.6779860
  49.2188437  72.7884834  47.5116649  49.7938845  72.0842551  46.4842387
  49.4774966  72.7415348  46.7727383  47.8372444  68.6986521  54.7623378
  48.2945058  69.4310495  54.8896171  47.9128773  68.2752986  55.5210634
  47.9163414  68.7443759  54.8924455  40.0805435  68.9452340  55.8512822
  39.5447625  68.3332698  56.1673589  40.1423200  69.5200476  56.5046489
  40.0101068  68.9399268  55.9948249  52.3099770  61.8776396  48.6317221
  52.4283338  62.3352859  47.8984524  52.1361946  61.0721657  48.3453439
  52.3018941  61.8270168  48.4818155  45.7154822  70.6888625  51.6065202
  44.9250897  70.5080085  51.9282538  46.1115445  69.9115577  51.5895497
  45.6571698  70.5476085  51.6517751  46.9111746  75.8581023  50.2304904
  46.4873995  76.0585522  49.4943923  46.7356601  75.0109871  50.3429204
  46.8222627  75.7629804  50.1378594  48.7373336  75.7290958  44.5326240
  49.2788881  75.2261339  44.9964861  49.0519895  75.6756153  43.7215725
  48.8637733  75.6470379  44.4810052  49.8862605  70.6227263  54.5848540
  50.1004575  69.9838177  54.0311894  49.2696504  71.0673086  54.1556402
  49.8267934  70.5937406  54.4398972  38.7728453  73.5368025  45.9793644
  39.1527417  73.9552570  45.3153911  38.1983817  74.1181481  46.2862487
  38.7439777  73.6845884  45.9270385  49.2777334  63.7327198  49.5735883
  48.4070892  63.7065919  49.5269193  49.5317675  63.5604390  48.7561729
  49.1870894  63.7037342  49.4456020  46.2495313  75.7895165  38.5109026
  46.5387838  76.5660048  38.7852601  46.3367112  75.2783897  39.2123526
  46.3049569  75.8287083  38.6551524  46.3026474  65.7433427  51.0309354
  45.7864963  65.0513618  51.1560933  45.7420403  66.4104204  50.9771952
  46.1432987  65.7396684  51.0415420  48.3718708  66.2826387  52.8602206
  47.9850461  66.3075418  53.6415736  47.8851645  65.7168065  52.4076723
  48.2431217  66.2022138  52.9090110  54.3468687  72.8489042  51.4841908
  53.9196295  72.7615390  50.7290008  53.7094740  72.9566817  52.0696752
  54.1898294  72.8521701  51.4587350  48.0375849  63.1693372  55.1512466
  48.6668967  63.7053672  54.8733536  48.2061712  63.0770731  56.0026032
  48.1553644  63.2354734  55.2360994  42.4159254  75.1028430  50.6109138
  41.5747261  75.0032304  50.8188032  42.6249262  75.8723910  50.9623459
  42.3223947  75.2020473  50.6936453  39.8934821  72.7247967  48.4393889
  39.4991519  72.7990978  47.6643999  39.3374938  73.1105913  48.9902251
  39.7537633  72.7929741  48.4061549  51.5299768  65.7029261  48.1197768
  51.7349361  65.6351568  48.9654765  51.2026192  66.5088082  48.0518945
  51.5115016  65.8115201  48.2357423  46.2275919  73.0309829  49.8606736
  45.9239056  72.4765817  50.4617144  45.5255340  73.2102039  49.3734770
  46.0792129  72.9754611  49.8776441  45.2842016  70.3410349  44.4251438
  45.5601750  69.6229261  44.0129005  45.8840685  70.9395269  44.2172544
  45.4135281  70.3230719  44.3332199  54.7833456  66.2561025  47.6000533
  54.1707769  66.7431427  47.9854265  54.8797630  65.5804516  48.1438185
  54.7071353  66.2279334  47.7379392  48.7852537  68.0123866  42.6998033
  49.2396283  68.1834426  43.4245877  49.2592582  67.3991977  42.2995808
  48.9220857  67.9474751  42.7471794  42.7028685  68.6574190  52.6968789
  43.1630166  68.7313119  53.4343913  42.7484791  69.4555444  52.3468610
  42.7779240  68.7868337  52.7541545  46.1265557  74.7166400  43.8043040
  46.8707601  75.1040677  44.0425990  46.2726253  73.8723826  43.9683528
  46.2576142  74.6496873  43.8637010  48.0445132  66.5116659  48.8374901
  47.1981177  66.6839467  48.7116251  48.0416264  65.7066003  49.1740730
  47.9192282  66.4177688  48.8686028  49.1143432  70.2891874  49.7036959
  48.6403387  69.7633636  50.2142270  49.4861568  69.7421347  49.1351821
  49.0993321  70.1307870  49.6952106  39.4916463  72.2863380  55.0720505
  40.3542076  72.1859090  54.9857835  39.1608246  71.7058090  54.5106077
  39.5701659  72.1855007  54.9765911  51.0426932  71.1828428  42.7662713
  50.5149951  71.2657172  42.0768422  51.5022640  71.9246300  42.7627358
  51.0328782  71.3049091  42.6637408  42.8518248  71.1105829  51.7330923
  42.2271319  71.1224221  51.1256876  42.5163843  71.5866004  52.3822163
  42.7103740  71.1824346  51.7387492  43.0359997  69.4530948  37.7903608
  42.6872801  70.1050673  38.2535158  42.5556443  69.4388061  37.0627479
  42.9130241  69.5474001  37.7514700  42.1208994  72.7198977  53.9505792
  42.2802481  71.9642301  54.3557514  41.9401887  73.2689917  54.6046529
  42.1174353  72.6892791  54.1068498  50.0629297  64.8860213  54.5056581
  49.5669858  65.0823887  53.8148148  50.8198359  65.2852881  54.3345383
  50.1016122  64.9737947  54.3776718  47.3332176  68.5602559  51.0959892
  47.3574664  68.0262671  50.4072672  47.5843650  68.0519867  51.7585482
  47.3742095  68.4063463  51.0924536  43.6133499  67.2873377  50.4765636
  43.6531870  67.7882583  51.1900343  42.7883163  67.3783771  50.2071559
  43.4973025  67.3755193  50.5416174  45.0347862  73.8033887  52.7739535
  44.2039792  73.9707705  52.5674783  44.9799379  73.4269838  53.5588420
  44.9037277  73.7723618  52.8588063  42.8431645  67.2942780  58.4095946
  43.4684349  66.7504912  58.6825378  42.3882125  66.8137697  57.8403736
  42.8679906  67.1432261  58.3657540  43.4083906  72.0789478  43.3029653
  43.5486867  72.5761942  44.0058294  43.9066439  71.3775773  43.4443866
  43.5024987  72.0491457  43.4281232  43.4384128  72.9456589  40.6322230
  44.0729208  73.5417014  40.5671691  43.5209739  72.6460047  41.4468100
  43.5440679  72.9897497  40.7425316  45.0163111  68.8770565  40.6067672
  45.3378952  68.3973647  39.9526934  45.2790055  69.6870211  40.4158483
  45.1029137  68.9260463  40.4823164  50.4122266  68.2642759  52.9691151
  50.8377338  67.8115285  52.3574677  49.7979259  67.7102829  53.2455938
  50.3850911  68.1156735  52.9196176  39.9437116  75.1424430  43.9011776
  40.4529346  75.7388938  44.2823081  40.4171388  74.8750404  43.2188195
  40.0880492  75.1910245  43.8566298  48.8516489  64.7357858  46.3781728
  48.2084807  64.5855505  46.9466866  48.5115896  64.4900204  45.6130832
  48.7061566  64.6769981  46.3484743  53.4415835  72.6917285  45.8011736
  52.7707025  73.2346988  45.6724802  54.1355586  73.1612141  45.5593431
  53.4444703  72.8415556  45.7467264  53.6043963  69.1473169  48.7102109
  53.9571573  68.7202892  49.3847908  52.7458764  69.0624012  48.8403186
  53.5293408  69.0717910  48.8297120  42.3027648  71.7780689  46.7684956
  41.5839637  72.1944821  47.0357820  42.6740010  72.3434927  46.2176594
  42.2519580  71.9229970  46.7267763  48.0774222  70.8178688  42.1058335
  47.4839062  71.1395685  41.5542903  48.1149500  69.9719784  41.8979442
  47.9948611  70.7403017  41.9941107  55.0368023  64.2691581  49.6386422
  54.5298888  63.5620720  49.5707599  55.8335457  63.9384770  49.7687499
  55.0795262  64.1164732  49.6485417  50.9532039  70.7758193  45.5360086
  50.7245732  70.7990894  44.6938444  51.2130115  69.9515660  45.6555096
  50.9578227  70.6574273  45.4285283  40.0816982  71.0730241  57.7887548
  39.9119572  71.7331616  57.2435754  39.6382932  71.2836803  58.5100037
  39.9916316  71.2016223  57.8149177  44.0076801  69.3134739  46.8314281
  44.4834168  69.6751819  46.1964463  43.5065401  69.9691207  47.1114424
  44.0042160  69.4628928  46.7791022  36.9819046  73.9777107  53.0476038
  36.4345766  73.3077752  53.1656906  37.7711425  73.6106955  53.1119505
  37.0171230  73.8242093  53.0744738  46.0503454  71.4575939  40.1987665
  46.4302419  71.4755568  39.4138780  45.3096051  71.9029928  40.0778513
  45.9972292  71.5257714  40.0651234  53.6788745  69.7658130  45.7863244
  53.6782971  69.6106787  46.6447520  53.4744925  70.6121117  45.7304630
  53.6488523  69.8678751  45.9051183  35.7406016  73.1897915  50.2022061
  35.5627777  72.7374524  50.9276976  35.4525038  73.9924076  50.3860538
  35.6718969  73.2420473  50.3365563  51.4029597  74.4455632  49.4399451
  51.8983262  73.7278627  49.4003471  50.5929373  74.1426430  49.3253938
  51.3573490  74.2953278  49.4173177  46.9729510  65.6821054  55.4135832
  47.1057416  64.8852048  55.7416807  47.3574663  66.2087457  55.9934108
  47.0485839  65.6420971  55.5479335  50.0461866  62.6051381  52.0116925
  49.2407829  62.4949110  52.3284764  49.9168601  62.7063836  51.1546791
  49.9081998  62.6035051  51.9324966  53.5027826  68.7696872  52.6056622
  52.9190815  69.2706079  52.1934189  53.8232120  68.2626429  51.9720945
  53.4641001  68.7688707  52.4515129  46.0422625  67.6837467  42.8815297
  46.8638320  67.8535780  42.6396992  45.5792276  67.8384728  42.1581594
  46.0953787  67.7319200  42.7386941  44.6317957  65.6780230  53.6613726
  45.1762370  65.3371356  54.2518067  44.6854893  66.5365691  53.8035010
  44.7207077  65.7535489  53.7695599  22.5326428   4.2264342  31.6497694
  22.5020432   5.0808979  31.8215964  23.1307777   3.9259634  32.2083838
  22.6163586   4.3080838  31.7572496  15.7326113   3.3139993  36.4050625
  14.8764008   3.4748491  36.4559741  15.7793767   2.4432057  36.4255686
  15.6125224   3.2090795  36.4156691  10.1167253  12.8502711  32.1687856
   9.3650152  12.4718249  31.9403901  10.5653264  12.8821144  31.4206666
  10.0716919  12.7988318  32.0245358  19.0419829   9.5826519  46.0111081
  19.7486597   9.0878549  46.1398015  19.2307765  10.0235600  45.2813739
  19.1747735   9.5744869  45.9220126  15.5692212  13.2728080  27.5973403
  15.2343581  13.9505002  27.1617625  16.0819083  12.8833392  27.0090275
  15.5957794  13.3152658  27.4460195  15.1096504  15.2242349  33.5384515
  15.4935883  15.7929248  32.9989290  15.0455645  14.4991859  33.0590331
  15.1569931  15.2017812  33.3878377  18.5777934   5.3732037  39.0482276
  19.1233894   6.0517123  39.1076246  18.5194810   5.2319498  38.1883858
  18.6493848   5.4524038  38.9294337  11.6952009  12.8621103  34.4350629
  11.7962372  12.0521457  34.7447756  11.0993754  12.7678049  33.8050307
  11.6224547  12.7286131  34.3876867  20.3543003   6.8016644  29.9216004
  20.2382528   7.5524330  30.3508142  21.1498889   6.5440597  30.1712091
  20.4547592   6.8751491  30.0220096  11.5352748  17.7798692  35.8365485
  12.1790204  18.2211856  36.2261643  11.8609004  16.9752118  35.7495743
  11.6784577  17.7263887  35.8810962   4.8917053   8.8841389  34.0602962
   4.6567237   8.0509042  33.9535231   5.0302694   9.1646055  33.2464163
   4.8772715   8.8024893  33.9245317  12.2373328  10.7910667  31.2085346
  12.5589169  11.3315874  30.6046654  12.8845425  10.2207438  31.3407636
  12.3799383  10.7869842  31.1392382  14.2875036   2.7926662  31.2919733
  14.9855201   2.9714789  31.7841196  14.6027369   2.2697001  30.6690122
  14.4370373   2.7420434  31.2721743  14.4762972   9.1797107  31.2799525
  14.9156607   8.5714207  31.7254297  14.3267634   8.8004480  30.5084990
  14.5184437   9.0335578  31.2318692  11.9434615   7.7741119  38.4818350
  12.5883617   7.2813562  38.1629299  12.1836392   7.9165905  39.3084428
  12.0745200   7.7218561  38.5567883  14.4820706  10.6196025  38.1325243
  14.7643949   9.8247430  37.9111998  15.2106866  11.0976612  38.1530304
  14.6310270  10.5730622  38.1028258  18.0772308   7.5324288  28.2330294
  17.9923603   8.3885255  28.3779863  18.5656691   7.2568612  28.9012453
  18.1361205   7.6181610  28.3532375  19.0090741   4.1509082  29.7328029
  18.4802213   4.3668716  30.3925335  19.5315761   4.8445221  29.6528998
  19.0079194   4.2852219  29.8183628  24.4638794   9.7255387  35.1061073
  23.6336497   9.9366030  35.2694490  24.4148047   8.8992441  34.8303357
  24.3345530   9.6344993  35.0898439  10.8990349   8.0472299  28.5335497
  10.3147564   8.5522331  28.9401361  10.4960444   7.8214686  27.7932089
  10.7529653   8.0880547  28.4840522   6.4534378  13.7627060  35.3359168
   5.9701956  14.4877550  35.3118752   7.2657696  14.0603190  35.4469326
   6.5025125  13.9129414  35.3486448  12.5248532  12.5559241  37.9408983
  12.0075473  12.1966656  37.3370291  13.2222923  12.0321415  37.9515049
  12.5514113  12.4256929  37.8539242  16.1812124  13.0054055  43.9025156
  16.2695470  12.8180195  44.7503366  16.6101836  12.3591485  43.5030003
  16.2574226  12.8817063  43.9696907  13.7482584  12.2885215  42.8842818
  13.1853418  11.8757825  43.4082479  14.5103607  12.2138121  43.3035961
  13.7777032  12.2162616  43.0235819  15.3567564   4.2937951  27.0104418
  15.5963567   4.5015935  26.1979761  15.6783405   3.4895460  27.1193362
  15.4404721   4.2052052  26.9064971   9.3078575  14.2783236  35.4879448
  10.0099154  13.7635225  35.5452205   9.2276058  14.6057388  36.2926323
   9.4002335  14.2497462  35.6152240  23.9592752   2.3725787  38.9011495
  23.1221174   2.4427975  39.1359089  23.9280983   2.3750282  38.0285797
  23.8311035   2.3836014  38.8071043  10.3557482   4.5158823  44.6159863
  10.5277985   4.4064718  45.4645145  10.8926839   5.1613229  44.3791056
  10.4602486   4.5950825  44.7064960   8.6329350  10.4689588  34.9965056
   9.4718250  10.7012521  35.0438818   8.6641120   9.5993900  34.9272092
   8.7611068  10.3746535  34.9929701   9.2582053  10.8890463  39.2978362
   9.7980278  10.7461594  39.9681734   8.5752000  11.2887214  39.6662388
   9.2374207  10.9270134  39.4512784  18.6822938   6.5681464  34.4923386
  19.4380453   7.0012978  34.5312295  18.7885263   5.9186234  35.0658022
  18.8093109   6.5358948  34.5821412  21.7203109  10.3954741  35.2425789
  21.2838341  10.3991484  35.9984761  21.3866025  11.0760240  34.8105367
  21.6065729  10.4967197  35.2906622  16.2932183  12.4363074  46.5668940
  17.0772600  12.5493922  46.9324682  16.0928778  11.6104211  46.7627625
  16.3798208  12.3309793  46.6503326  21.6400592  -2.5631431  37.4855217
  22.2826501  -2.4933326  38.0717132  21.8923613  -3.2302208  36.9834759
  21.7722724  -2.6505082  37.4982496  24.8547456   7.1135661  34.1345426
  25.5163890   6.5526330  34.0341335  24.2138868   6.6187692  34.4598118
  24.8576323   6.9572070  34.1677767  15.7424263  10.4105793  26.4426350
  16.1575412  10.0790816  25.7510845  14.9116193  10.1774695  26.3146486
  15.6812272  10.3277048  26.3217197   5.0712612   7.8949534  36.7324528
   4.8888185   7.8696420  35.8796820   5.8062281   8.3648471  36.7713436
   5.1526676   7.9610896  36.6122446  21.1412286   8.1301044  33.8757415
  21.3767876   8.2746242  33.0484266  21.2901850   8.8943452  34.2688929
  21.1978090   8.2640098  33.8121019  22.9702743   6.9702709  31.7127019
  23.3010960   7.5030350  31.1067114  23.5435831   7.0241597  32.3688970
  23.1036422   7.0572278  31.7204801  15.5103313   8.0933621  48.1055583
  14.7176294   8.4077133  48.2908203  15.6252240   8.3085089  47.2676368
  15.4098724   8.1717458  48.0093918  18.1834632   4.8167612  32.3950599
  18.2781487   5.5556906  32.8490225  17.5593476   4.3885088  32.8285164
  18.1043662   4.8628933  32.5258747  16.4387106   7.9953825  43.0440880
  17.0125968   7.3581069  43.1989444  16.3601910   7.9957907  42.1750538
  16.5120341   7.9018936  42.9387291  18.4357654   6.6616352  25.6287551
  18.3537816   6.7318539  26.4942538  19.0737374   7.2246096  25.4371292
  18.5177491   6.7555323  25.7277501  11.7950825   6.4277090  35.0962077
  11.5370069   5.5948825  35.0693377  11.8499307   6.6534703  34.2554578
  11.7650603   6.3374861  34.9682214  14.4358825   2.4538202  40.4419351
  14.0473258   2.0292419  39.7871542  13.7713524   2.7020351  40.9496377
  14.2805753   2.4276923  40.4207219  24.0782095   2.2113206  33.2167181
  23.8218659   1.3993148  33.0265063  24.9211409   2.2190773  32.9897368
  24.1648120   2.0925204  33.1551998  15.5397764   6.6836806  28.6396158
  16.3538403   6.9751699  28.5278929  15.4756905   6.0296669  28.0654451
  15.6500503   6.6302001  28.5384995  21.7607254   9.3662802  43.0525733
  21.5245891   8.5350867  42.9337794  22.4050483   9.3148410  43.6380577
  21.8201925   9.2360490  43.1211627  11.4105672  10.1558324  33.7668470
  12.0479619   9.9170071  34.3120263  11.8360744  10.3595483  33.0321630
  11.5681838  10.1509334  33.7385627   6.1018314  12.3946660  37.6502773
   6.1422460  12.6661511  36.8222553   6.6612838  12.9188568  38.0660561
   6.1901660  12.5122415  37.5894662  12.0508487   5.3760613  28.1043359
  12.4353640   5.1568320  28.8559904  11.8020107   6.2023559  28.2344435
  12.0710560   5.4658760  28.2344436  22.7843674   9.1507251  39.1154028
  22.4789492   9.8835308  39.4767343  22.0649890   8.7445181  38.8346814
  22.6331017   9.1988984  39.1267165  13.7927144  10.6330746  35.4462256
  13.8666152  10.4705918  36.3004106  14.6096650  10.8220936  35.2022738
  13.9243503  10.6367489  35.5360282  28.4845467   5.7900252  38.4422372
  28.4169967   5.8096211  37.5724959  28.4701129   6.6330579  38.6678043
  28.4724223   5.9173986  38.3474849   7.5532901  10.9788609  32.4756699
   6.7271018  11.2250346  32.3490978   7.6144892  10.9000690  33.3418758
   7.4407068  11.0033558  32.5845644  12.3331730  13.5965489  30.1775729
  12.6230028  13.2054471  29.4534956  13.0635210  13.7782194  30.6181005
  12.4838614  13.5659303  30.1358536  26.2704084   4.5644638  36.7168966
  26.8212006   3.9312707  36.9566058  26.2548199   5.0960031  37.4084471
  26.3489280   4.5493586  36.8547825  12.9226475   8.3983235  41.2628860
  12.4238168   9.1099003  41.3413748  13.7326699   8.7183902  41.2247022
  12.9682582   8.5510084  41.2685428  10.2737645  15.5732872  33.2435879
  10.0537941  15.2830227  34.0362546  10.0532167  14.9147827  32.7153791
  10.2085239  15.4332580  33.2824788   9.1854592   7.6606188  35.5091581
   8.8967841   7.0343660  36.0437308  10.0537940   7.6026476  35.5756261
   9.2714844   7.5593733  35.5982535  19.9732490   2.8040972  35.8273563
  19.6297256   2.0831307  36.1780812  20.0725533   2.5954823  34.9851921
  19.9374533   2.6665175  35.7545243  12.4405601  16.9462262  32.0266571
  13.0929659  16.4138704  32.2557598  11.7431210  16.5930914  32.4134446
  12.4336319  16.8151785  32.1178739   9.3886866   9.3001439  31.4333946
  10.1432834   9.6814478  31.6469408   8.7957478   9.7512583  31.8880642
   9.4123579   9.4230267  31.5316824  20.4345519   9.2666676  31.3697551
  21.0003552   9.9259886  31.2856094  19.7873423   9.6116374  31.8413953
  20.4224276   9.4148617  31.4270307  10.7085092  10.4710001  36.8074061
  10.1865846  10.6110292  37.4925926  11.0959113   9.7120665  36.9976179
  10.6888793  10.3795525  36.9375138  16.9052097  12.2105460  30.7934630
  16.6638773  11.4773321  30.3861695  17.0853430  12.7592317  30.1400963
  16.8959721  12.1827851  30.6364853  12.1351418   7.5014020  32.2055552
  11.9394201   8.1088754  31.6115855  12.3585764   6.8081964  31.7247226
  12.1386059   7.4891545  32.0471633  10.5329948   4.3868758  32.3236421
  11.2552600   4.5509916  31.8640227  10.0537941   5.1078422  32.2175760
  10.5693679   4.5166987  32.2402035  18.4923456   0.7232556  37.7033106
  17.6534556   0.7493835  37.4671369  18.5627823   1.3703292  38.2838452
  18.3791849   0.8228682  37.7542222   8.1837565   6.7926830  41.4290560
   8.6958662   7.0711083  40.7799320   7.8973907   7.5316124  41.7953373
   8.2172428   6.9429184  41.3880438  22.3680979   5.9300543  34.9894347
  22.2814954   6.0855969  35.8429126  21.9131459   6.5738619  34.6153752
  22.2884236   6.0476298  35.0601454  16.2406796   3.2511290  33.6119907
  15.9941510   3.1707041  34.4456696  16.5691919   2.4664758  33.4182434
  16.2528039   3.1237556  33.7067430  20.1354844   9.9594650  37.4006688
  19.9969204  10.6575695  37.9055430  19.3554842   9.8043306  37.0442870
  19.9998071  10.0394816  37.4232962  18.4732929   6.2591025  43.6529070
  18.4680968   5.3870842  43.6571496  19.1793923   6.4579194  43.1798525
  18.5777933   6.1594899  43.5836105  12.2003823   5.9868009  43.0242890
  12.3447199   6.5669217  42.3886000  12.5479471   6.3644306  43.7292744
  12.2731284   6.1288713  43.0341885  14.3723740   5.1858177  40.8068021
  13.6247054   5.3789192  40.4016300  14.5265265   4.3603397  40.5692143
  14.2846168   5.0923289  40.7113427  11.2731578  14.1770781  39.8903917
  11.4221142  13.6173697  39.2377321  12.0531580  14.2562782  40.2736435
  11.4105671  14.1056346  39.8500866  21.6308217   9.3172903  28.1623187
  21.2515026   8.5310041  28.1552477  20.9674463   9.8659760  28.0194831
  21.4766692   9.2817727  28.1403984  13.7984878  14.3485424  41.1688408
  13.7228550  13.6794234  41.7239196  13.7274738  15.0503212  41.6829074
  13.7765485  14.3530331  41.3265256  14.4555125  12.8686422  32.0012013
  15.2205016  12.5996066  31.6794678  14.3533215  12.3836433  32.7182076
  14.5536621  12.7575987  32.0591841  16.9773786   9.8998606  23.9811963
  17.7446771   9.9598731  23.5717815  16.5305095   9.3279048  23.4968281
  17.0247213   9.8235182  23.8489673  17.8751581   8.7053262  36.2664695
  17.1996583   8.4738494  36.7678082  17.8843957   8.0974445  35.6406800
  17.7770086   8.5812187  36.2480847  15.0045725   3.5471091  43.0228748
  14.9404867   4.4081047  42.8948885  15.1442913   3.2303084  42.2224299
  15.0161195   3.6271258  42.8856961  19.8768316  11.5618394  28.4974873
  19.9588153  12.3685381  28.1736324  20.3618058  11.5814354  29.2215647
  19.9605474  11.6839057  28.5561772  13.6864819   6.2403230  37.1644951
  13.2627068   6.4407729  36.4283969  13.5109674   5.3932078  37.2769251
  13.5975700   6.1452012  37.0718641  13.1876513  17.7553743  39.6266408
  13.6772443  17.0564533  39.4442073  12.6160745  17.4577613  40.2142466
  13.1761043  17.6079967  39.6867449   8.9747264   6.7355282  32.5972924
   9.1311883   6.6702085  33.4528916   9.3147857   7.5103834  32.3851603
   9.0480499   6.8404480  32.6927518  15.5126409   6.1113165  31.4666287
  16.0541954   5.6083546  31.9304907  15.8272968   6.0578360  30.6555772
  15.6390806   6.0292586  31.4150099  19.3843516  10.3215813  48.5793199
  20.1978382  10.0500962  48.7398331  19.2238483  10.0223353  47.7753395
  19.4813465  10.2370739  48.4838605  13.6812859  11.5030517  28.7506315
  13.7505679  10.6445055  28.8899315  14.4601314  11.7202398  28.4225339
  13.8065709  11.4083381  28.7223472  16.6615678   1.0049470  41.5188587
  16.8757648   0.3660384  40.9651941  16.0449577   1.4495294  41.0896449
  16.6021007   0.9759614  41.3739018  18.0720346  13.9268218  32.9642808
  17.6800138  13.6234933  32.2465674  18.2273418  14.7637308  32.7747762
  18.0373936  14.0052055  32.8299305  18.8254766   2.6138535  42.4571894
  18.0131448   2.3064425  42.5385067  19.2844701   2.1337535  43.0214607
  18.7735151   2.4975027  42.5526488  18.2360021  10.4918207  32.9048839
  17.8774676  10.6632850  33.6812871  17.7498732  10.9531413  32.3476837
  18.1118718  10.5857178  32.9374108  13.0248386   6.1717372  25.4449073
  13.3140911   6.9482255  25.7192647  13.1120185   5.6606104  26.1463572
  13.0802643   6.2109291  25.5891571  15.9208274   4.0198607  47.2400597
  16.3907905   4.6440723  47.6268471  15.9670154   3.3515582  47.7993811
  15.9976150   4.0133287  47.3800668  19.3964760  11.3822103  43.8516040
  20.0344481  10.8882299  43.5178496  18.7538852  11.3099503  43.2668266
  19.3958987  11.2981112  43.7158394  21.1221760   3.2311249  38.4181955
  20.6949368   3.1437598  37.6630055  20.4847813   3.3389024  39.0036799
  20.9651368   3.2343909  38.3927397   9.1912327   5.4850637  37.5449185
   8.3500334   5.3854511  37.7528079   9.4002335   6.2546117  37.8963506
   9.0977020   5.5842680  37.6276500  13.0028992   3.4132036  36.7946783
  12.6992130   2.8588024  37.3957190  12.3008413   3.5924246  36.3074817
  12.8545202   3.3576819  36.8116488  11.0647343  10.6281757  41.5018880
  10.9567698  10.6383819  42.3680938  11.2743125  11.4536537  41.3123834
  11.0797454  10.7522832  41.6022972  21.5586529  -3.3616768  34.5340580
  20.9460842  -2.8746366  34.9194312  21.6550704  -4.0373277  35.0778231
  21.4824426  -3.3898459  34.6719438   9.0821135   7.8794399  38.9640818
   8.4909068   8.5203898  38.9343833   9.8442159   8.3032017  38.9372118
   9.1069396   8.0370238  38.9555965  25.2011557   7.7100169  39.9618096
  25.2594680   8.1586818  40.7078073  24.5678024   8.1198982  39.5248176
  25.1162852   7.8373904  40.0070645  12.9018630   5.0988608  30.7383087
  13.6460675   5.4862884  30.9766037  13.0479326   4.2546033  30.9023575
  13.0329215   5.0319081  30.7977056  22.1533236   5.7316457  38.0483787
  21.9131459   4.8922872  38.0526213  22.6325243   5.8116623  38.7724560
  22.1885420   5.6197856  38.1558589  17.8180005   1.5650636  29.7002760
  17.2903024   1.6479380  29.0108469  18.2775713   2.3068507  29.6967405
  17.8081856   1.6871298  29.5977455  24.1538423   2.5117914  36.0013046
  23.9148193   2.4713748  35.1633830  24.3172324   3.3589066  36.1278767
  24.1428727   2.6309999  35.8966528  20.7584453   6.8967863  41.9318091
  21.4818652   6.4440390  41.7529111  20.4934416   7.1772529  41.1490419
  20.8265727   6.8718832  41.7896806   6.3396997   9.5528497  40.1074734
   5.8096922   8.8620936  40.1569709   6.6122091   9.5438682  39.2787443
   6.3021720   9.4495629  39.9922150  17.3717088  10.1354199  28.8312417
  18.0951287  10.6012312  28.6876990  16.9317679  10.2027809  28.0810014
  17.4132780  10.2138036  28.6997198  16.5403243   6.9951741  40.0813106
  15.9260236   6.4509792  40.3761741  17.0570528   6.4815978  39.6018922
  16.5258905   6.8388151  40.0537334  15.7799540   8.0656011  37.8157405
  15.3527148   7.4405730  37.3822840  15.7724484   7.7830933  38.6416412
  15.7158681   7.9308792  37.8737232  12.5716185   7.2356324  45.5125977
  11.7211815   7.3728039  45.6483622  12.7344312   6.5020103  45.9573679
  12.4700048   7.1470425  45.5981577  11.8100935   4.1856094  39.7079582
  10.9792865   4.3529912  39.5014830  11.7552452   3.8092045  40.4928467
  11.6790350   4.1545825  39.7928110  23.1919767   5.8594274  40.4348641
  23.7837608   6.4991525  40.4666839  23.6278762   5.1617311  40.7240707
  23.3438198   5.8512624  40.4829473  15.0213157  10.2811646  41.0606535
  14.5138248  10.8347493  41.5047165  14.7239803  10.3419936  40.2425309
  14.9018042  10.3717958  41.0054991  17.6320937  14.1974904  28.9910478
  16.9150247  14.0235766  28.5257715  18.2827675  13.9627476  28.4585964
  17.6222788  14.1370697  28.8439696  20.2168909   3.0739493  32.7351783
  19.5460099   3.6169195  32.6064849  20.9108659   3.5434348  32.4933478
  20.2197776   3.2237764  32.6807311  14.2655642  15.2136205  37.9663541
  14.0421297  14.4555034  38.3347568  13.7765486  15.2434226  37.2443981
  14.1599091  15.1058429  37.9140282  20.3797036  -0.4704624  35.6442156
  20.7324646  -0.8974901  36.3187955  19.5211838  -0.5553780  35.7743233
  20.3046481  -0.5459883  35.7637167  18.3780302   2.7930745  39.5926999
  18.3578229   2.6114040  40.4461777  18.4259503   3.6642763  39.5686582
  18.3814943   2.8947283  39.7150293  16.3226632   9.3817937  45.5175475
  16.2822487   8.7367614  44.9320631  17.1349950   9.3254554  45.8300887
  16.4369785   9.2776904  45.4772424  12.9134099  15.4336663  35.4200626
  12.4994498  14.7710793  35.0304468  13.5981474  15.5814522  34.8996320
  12.9532471  15.3577321  35.2857123  16.2799393  14.5926748  36.1724243
  15.8815677  14.7029018  35.4045063  15.6650613  14.8008814  36.7550802
  16.1298283  14.6400316  36.1455542  17.7285112   1.1580400  32.4700133
  17.4998805   1.1813102  31.6278491  17.9883188   0.3337867  32.5895143
  17.7331300   1.0396480  32.3625330  24.0141236   9.1678715  29.5567333
  24.3974842   9.9170071  29.7865430  23.2185349   9.4144534  29.2979322
  23.9535018   9.3148409  29.5524907  15.8873411   0.9339118  44.5127488
  16.4444841   0.7052928  43.8805954  15.5634476   1.6944784  44.2362701
  15.9219821   1.0122955  44.3783985  13.6056528   4.0206771  45.4779495
  14.3567855   4.3358448  45.7919050  13.7979105   3.8185942  44.6513417
  13.7447942   4.0374153  45.4022891  20.4541818   0.1480338  32.7203291
  20.4536045  -0.0071006  33.5787567  20.2497998   0.9943325  32.6644676
  20.4241596   0.2500958  32.8391230  18.1782670   4.8277839  36.3739498
  18.6736336   4.1100835  36.3343518  17.3682446   4.5248637  36.2593985
  18.1326564   4.6775486  36.3513224  13.6241282   8.6775653  28.5236502
  12.8152605   8.3542326  28.4769812  14.1316191   7.9708875  28.4564751
  13.5790949   8.5256969  28.5066797  20.2434489   7.5781527  39.0616626
  20.6689561   7.0555949  38.5087052  19.8791409   8.1762364  38.5405249
  20.2521092   7.5891754  38.9025636   9.8788569  15.8745744  37.8213972
  10.1935128  16.6882133  37.8291754  10.2881982  15.4895963  38.4896131
   9.9856667  15.9374447  37.9218064  16.8313089  11.2915791  35.3917784
  17.3024267  12.0056054  35.5607769  17.1673267  10.6914541  35.9277653
  16.9508204  11.3087256  35.4950160  18.9190073  12.9017105  47.5709856
  19.0287039  12.1125665  47.9266603  19.2480970  12.8123041  46.7684194
  18.9842479  12.7722958  47.5052247  17.4687035  11.0833725  42.1545477
  16.9207981  10.4591609  41.8865542  17.9300064  11.2727997  41.4389556
  17.4554244  11.0192776  42.0095908  20.2780899  -0.8480920  39.5396669
  19.6943888  -0.3471714  39.1274236  20.5985193  -1.3551364  38.9060992
  20.2394075  -0.8489085  39.3855176   7.2201589   9.8218853  37.4692580
   7.8246446   9.7814687  36.8406401   7.0128902  10.6690005  37.4996636
   7.2790486   9.9406855  37.3808697  17.0345361  12.0884798  38.6854818
  17.8543735  11.9447764  38.9471113  16.7539439  12.7130997  39.2271256
  17.1142105  12.1595150  38.8042757  30.6410891   9.6689889  33.6190618
  30.3264332  10.3593368  34.0511041  30.1237833   9.6134672  32.9176119
  30.5175361   9.7624778  33.5787568  21.6390437  11.7416655  30.8563955
  22.3936405  12.1094972  30.6181006  21.4617972  12.1156209  31.6243135
  21.7244916  11.8514843  30.9348844  19.9947502  14.1486974  27.5542068
  19.8123075  14.3658855  26.7283061  20.8573115  14.2625987  27.6100683
  20.0952091  14.1976872  27.4396555  25.6747221  11.1513385  30.5891092
  26.4033382  10.9729339  30.1429249  25.7642114  11.9931464  30.7998270
  25.7953883  11.2497263  30.5544610  15.6351782  22.6276062  39.4512783
  15.3690197  21.8115179  39.6103774  15.6490346  22.6729218  38.5808299
  15.5976504  22.5132967  39.3466265  32.6133176  12.9553877  37.4855217
  33.2559084  13.0251982  38.0717132  32.8656197  12.2883100  36.9834759
  32.7455308  12.8680226  37.4982496  16.0116106  20.2928342  36.8823594
  16.5889609  20.1564793  37.5215840  15.3130168  19.8364126  37.1369179
  15.9937127  20.2050608  37.0145884  11.4874939  19.1440235  33.5971413
  11.5735191  18.7672103  34.3784943  12.1150737  18.7700681  33.1191371
  11.5931490  19.0325717  33.6416890  29.2317771  11.6698138  37.9543335
  29.6128282  10.9876309  38.3411209  28.4281055  11.3807740  37.7718999
  29.1694232  11.5265187  37.9847391  20.7441508  12.5642858  33.4352140
  19.8763933  12.6365458  33.5009749  21.0316712  13.3664937  33.6240115
  20.6581256  12.6937005  33.4726906  18.6708860  16.0401117  30.8769016
  18.3833656  15.6702388  30.1400963  19.3579328  16.5095973  30.6152721
  18.7297757  16.0548087  30.7284092  16.2437055  16.8182330  31.7254297
  16.3453191  17.6208491  32.0535272  17.0392941  16.6169666  31.4277377
  16.3764960  16.9068229  31.7289652  30.0585427   7.7783911  35.5657268
  30.1768995   8.2360374  34.8324571  29.8847602   6.9729172  35.2793486
  30.0504598   7.7277683  35.4158202  27.0262990   9.6334714  36.5075930
  26.1556548   9.6073435  36.4609240  27.2803332   9.4611906  35.6901776
  26.9356551   9.6044857  36.3796067  24.0512131  11.6440942  37.9649400
  23.5350620  10.9521133  38.0900979  23.4906060  12.3111719  37.9111999
  23.8918644  11.6404200  37.9755466  25.7861506   9.0700887  42.0852513
  26.4154624   9.6061188  41.8073583  25.9547369   8.9778246  42.9366079
  25.9039301   9.1362250  42.1701041  29.2785425  11.6036776  35.0537815
  29.4835018  11.5359084  35.8994812  28.9511849  12.4095597  34.9858992
  29.2600672  11.7122716  35.1697470  23.0327673  16.2417864  31.3591484
  23.3087407  15.5236776  30.9469052  23.6326342  16.8402784  31.1512591
  23.1620937  16.2238235  31.2672246  32.5319112  12.1568540  34.5340580
  31.9193426  12.6438942  34.9194312  32.6283287  11.4812031  35.0778231
  32.4557010  12.1286849  34.6719438  25.7930789  12.4124175  35.7714948
  24.9466834  12.5846982  35.6456298  25.7901921  11.6073518  36.1080776
  25.6677939  12.3185204  35.8026075  20.7845654  15.3538463  24.7243655
  20.4358458  16.0058188  25.1875204  20.3042100  15.3395576  23.9967526
  20.6615898  15.4481517  24.6854746  27.8114954  10.7867728  41.4396628
  27.3155515  10.9831402  40.7488195  28.5684016  11.1860396  41.2685430
  27.8501778  10.8745462  41.3116765  12.5925423  21.7441569  37.4643083
  12.4868872  21.6988413  36.5995167  11.8425643  22.0895349  37.7457368
  12.4661026  21.7882477  37.3780412  22.7648768  14.7778080  27.5407718
  23.0864609  14.2981163  26.8866981  23.0275712  15.5877726  27.3498530
  22.8514793  14.8267978  27.4163210  26.6002146  10.6365374  33.3121775
  25.9570464  10.4863020  33.8806913  26.2601553  10.3907719  32.5470879
  26.4547223  10.5777496  33.2824790  32.7853680  10.1699096  36.5726469
  32.2784544   9.4628236  36.5047646  33.5821113   9.8392285  36.7027545
  32.8280919  10.0172247  36.5825464  14.7304703  19.8784622  39.9816084
  14.1831423  19.2085268  40.0996953  15.5197081  19.5114470  40.0459552
  14.7656887  19.7249609  40.0084785  23.7989111  17.3583454  27.1327712
  24.1788076  17.3763084  26.3478827  23.0581707  17.8037443  27.0118559
  23.7457949  17.4265229  26.9991280  13.4891673  19.0905430  37.1362107
  13.3113434  18.6382039  37.8617023  13.2010695  19.8931591  37.3200585
  13.4204626  19.1427988  37.2705610  15.2264143  21.6233154  34.2483866
  14.3609662  21.6118844  34.1366638  15.3262959  21.4363377  35.0955006
  15.1138310  21.5939215  34.3572811  24.7215167  11.5828570  42.3475879
  24.8543073  10.7859563  42.6756854  25.1060320  12.1094973  42.9274154
  24.7971496  11.5428486  42.4819382  27.7947522   8.5058896  38.9456972
  26.9893486   8.3956626  39.2624810  27.6654258   8.6071352  38.0886838
  27.6567655   8.5042566  38.8665012  23.7908282  13.5844983  29.8155344
  24.6123976  13.7543295  29.5737039  23.3277933  13.7392244  29.0921641
  23.8439444  13.6326716  29.6726988  22.3803614  11.5787745  40.5953773
  22.9248027  11.2378872  41.1858114  22.4340550  12.4373206  40.7375057
  22.4692733  11.6543004  40.7035646  13.4285455  24.3238778  37.3391504
  13.3309733  23.5135050  37.6481560  14.2114325  24.3030572  36.9537772
  13.5301591  24.2005869  37.3278366  55.4524179  50.7820266  31.6497694
  55.4218183  51.6364902  31.8215964  56.0505527  50.4815558  32.2083838
  55.5361337  50.8636762  31.7572496  51.9617580  56.1382442  46.0111081
  52.6684347  55.6434473  46.1398015  52.1505516  56.5791524  45.2813739
  52.0945486  56.1300793  45.9220126  48.4889963  59.8284004  27.5973403
  48.1541332  60.5060926  27.1617625  49.0016834  59.4389315  27.0090275
  48.5155544  59.8708582  27.4460195  48.0294254  61.7798273  33.5384515
  48.4133634  62.3485171  32.9989290  47.9653396  61.0547783  33.0590331
  48.0767682  61.7573736  33.3878377  44.4550499  64.3354616  35.8365485
  45.0987955  64.7767780  36.2261643  44.7806755  63.5308042  35.7495743
  44.5982328  64.2819811  35.8810962  50.9970059  54.0880212  28.2330294
  50.9121354  54.9441179  28.3779863  51.4854442  53.8124536  28.9012453
  51.0558956  54.1737533  28.3532375  51.9288492  50.7065006  29.7328029
  51.3999963  50.9224640  30.3925335  52.4513512  51.4001145  29.6528998
  51.9276945  50.8408143  29.8183628  57.3836545  56.2811311  35.1061073
  56.5534248  56.4921954  35.2694490  57.3345797  55.4548365  34.8303357
  57.2543280  56.1900917  35.0898439  39.3732128  60.3182984  35.3359168
  38.8899707  61.0433474  35.3118752  40.1855447  60.6159114  35.4469326
  39.4222876  60.4685338  35.3486448  49.2129934  58.9918998  46.5668940
  49.9970350  59.1049846  46.9324682  49.0126528  58.1660135  46.7627625
  49.2995959  58.8865717  46.6503326  57.7745206  53.6691585  34.1345426
  58.4361640  53.1082253  34.0341335  57.1336618  53.1743616  34.4598118
  57.7774074  53.5127994  34.1677767  48.6622014  56.9661716  26.4426350
  49.0773163  56.6346740  25.7510845  47.8313944  56.7330619  26.3146486
  48.6010023  56.8832972  26.3217197  55.8900494  53.5258633  31.7127019
  56.2208711  54.0586273  31.1067114  56.4633582  53.5797521  32.3688970
  56.0234173  53.6128202  31.7204801  51.3555404  53.2172276  25.6287551
  51.2735567  53.2874463  26.4942538  51.9935125  53.7802020  25.4371292
  51.4375242  53.3111247  25.7277501  54.6805005  55.9218726  43.0525733
  54.4443642  55.0906791  42.9337794  55.3248234  55.8704333  43.6380577
  54.7399675  55.7916414  43.1211627  39.0216065  58.9502584  37.6502773
  39.0620210  59.2217435  36.8222553  39.5810589  59.4744492  38.0660561
  39.1099411  59.0678339  37.5894662  55.7041425  55.7063175  39.1154028
  55.3987242  56.4391232  39.4767343  54.9847641  55.3001104  38.8346814
  55.5528768  55.7544908  39.1267165  61.4043217  52.3456176  38.4422372
  61.3367718  52.3652135  37.5724959  61.3898880  53.1886503  38.6678043
  61.3921974  52.4729910  38.3474849  59.1901835  51.1200562  36.7168966
  59.7409756  50.4868631  36.9566058  59.1745950  51.6515955  37.4084471
  59.2687031  51.1049510  36.8547825  43.1935396  62.1288796  33.2435879
  42.9735691  61.8386150  34.0362546  42.9729918  61.4703751  32.7153791
  43.1282990  61.9888504  33.2824788  45.3603352  63.5018186  32.0266571
  46.0127410  62.9694628  32.2557598  44.6628960  63.1486838  32.4134446
  45.3534070  63.3707708  32.1178739  55.2878730  52.4856467  34.9894347
  55.2012705  52.6411893  35.8429126  54.8329210  53.1294543  34.6153752
  55.2081987  52.6032222  35.0601454  44.1929328  60.7326704  39.8903917
  44.3418892  60.1729620  39.2377321  44.9729331  60.8118706  40.2736435
  44.3303422  60.6612270  39.8500866  54.5505968  55.8728827  28.1623187
  54.1712777  55.0865965  28.1552477  53.8872213  56.4215684  28.0194831
  54.3964443  55.8373651  28.1403984  49.8971537  56.4554530  23.9811963
  50.6644522  56.5154655  23.5717815  49.4502846  55.8834971  23.4968281
  49.9444964  56.3791106  23.8489673  52.7966067  58.1174318  28.4974873
  52.8785904  58.9241304  28.1736324  53.2815809  58.1370277  29.2215647
  52.8803225  58.2394981  28.5561772  46.1074263  64.3109667  39.6266408
  46.5970194  63.6120456  39.4442073  45.5358496  64.0133537  40.2142466
  46.0958793  64.1635891  39.6867449  52.3041267  56.8771737  48.5793199
  53.1176132  56.6056885  48.7398331  52.1436233  56.5779276  47.7753395
  52.4011215  56.7926663  48.4838605  52.3162511  57.9378027  43.8516040
  52.9542231  57.4438222  43.5178496  51.6736603  57.8655427  43.2668266
  52.3156737  57.8537035  43.7158394  58.1209307  54.2656093  39.9618096
  58.1792431  54.7142742  40.7078073  57.4875775  54.6754906  39.5248176
  58.0360603  54.3929827  40.0070645  55.0730987  52.2872381  38.0483787
  54.8329210  51.4478796  38.0526213  55.5522994  52.3672547  38.7724560
  55.1083171  52.1753780  38.1558589  53.6782204  53.4523787  41.9318091
  54.4016403  52.9996313  41.7529111  53.4132166  53.7328453  41.1490419
  53.7463477  53.4274756  41.7896806  50.2914838  56.6910123  28.8312417
  51.0149037  57.1568236  28.6876990  49.8515429  56.7583733  28.0810014
  50.3330531  56.7693960  28.6997198  56.1117518  52.4150198  40.4348641
  56.7035358  53.0547449  40.4666839  56.5476513  51.7173235  40.7240707
  56.2635949  52.4068548  40.4829473  50.5518688  60.7530828  28.9910478
  49.8347998  60.5791690  28.5257715  51.2025426  60.5183400  28.4585964
  50.5420539  60.6926620  28.8439696  47.1853393  61.7692128  37.9663541
  46.9619048  61.0110958  38.3347568  46.6963236  61.7990150  37.2443981
  47.0796842  61.6614353  37.9140282  45.8331850  61.9892587  35.4200626
  45.4192249  61.3266717  35.0304468  46.5179224  62.1370445  34.8996320
  45.8730222  61.9133245  35.2857123  56.9338987  55.7234639  29.5567333
  57.3172593  56.4725995  29.7865430  56.1383100  55.9700458  29.2979322
  56.8732769  55.8704332  29.5524907  42.7986320  62.4301668  37.8213972
  43.1132879  63.2438057  37.8291754  43.2079733  62.0451887  38.4896131
  42.9054418  62.4930371  37.9218064  51.8387824  59.4573028  47.5709856
  51.9484789  58.6681589  47.9266603  52.1678721  59.3678965  46.7684194
  51.9040230  59.3278881  47.5052247  59.6256447  65.3881225  36.4050625
  58.7694343  65.5489723  36.4559741  59.6724101  64.5173289  36.4255686
  59.5055559  65.2832026  36.4156691  62.4708268  67.4473269  39.0482276
  63.0164228  68.1258355  39.1076246  62.4125145  67.3060729  38.1883858
  62.5424183  67.5265270  38.9294337  48.7847387  70.9582621  34.0602962
  48.5497572  70.1250274  33.9535231  48.9233028  71.2387287  33.2464163
  48.7703050  70.8766125  33.9245317  51.0837475  63.1268352  36.9587270
  50.4642506  62.5360999  36.7897285  50.9821338  63.7179787  36.3251593
  50.9775150  63.1272434  36.8392260  58.1805370  64.8667894  31.2919733
  58.8785535  65.0456021  31.7841196  58.4957703  64.3438233  30.6690122
  58.3300708  64.8161666  31.2721743  50.8106608  66.6720633  39.2030839
  50.6865305  67.2583079  39.8380658  51.4624892  66.1780829  39.5043114
  50.8880257  66.6859438  39.3416768  58.3693306  71.2538339  31.2799525
  58.8086941  70.6455439  31.7254297  58.2197969  70.8745712  30.5084990
  58.4114772  71.1076810  31.2318692  55.8364949  69.8482350  38.4818350
  56.4813951  69.3554794  38.1629299  56.0766726  69.9907137  39.3084428
  55.9675534  69.7959793  38.5567883  56.3532234  60.2360290  35.3741008
  56.0235564  60.6871434  34.7044706  55.6777236  60.1576454  35.9214014
  56.2042670  60.2911425  35.3564231  63.5608642  56.2245813  33.6190618
  63.2462083  56.9149292  34.0511041  63.0435583  56.1690595  32.9176119
  63.4373112  56.3180702  33.5787568  62.9021076  66.2250314  29.7328029
  62.3732547  66.4409948  30.3925335  63.4246096  66.9186453  29.6528998
  62.9009529  66.3593451  29.8183628  54.7920683  70.1213531  28.5335497
  54.2077899  70.6263562  28.9401361  54.3890779  69.8955918  27.7932089
  54.6459987  70.1621779  28.4840522  50.3464712  75.8368292  35.3359168
  49.8632290  76.5618782  35.3118752  51.1588030  76.1344422  35.4469326
  50.3955460  75.9870646  35.3486448  59.2497898  66.3679183  27.0104418
  59.4893902  66.5757167  26.1979761  59.5713739  65.5636692  27.1193362
  59.3335056  66.2793284  26.9064971  54.5588188  58.2972579  30.8563955
  55.3134156  58.6650896  30.6181006  54.3815723  58.6712133  31.6243135
  54.6442666  58.4070767  30.9348844  67.8523087  64.4467019  38.9011495
  67.0151508  64.5169206  39.1359089  67.8211318  64.4491514  38.0285797
  67.7241369  64.4577246  38.8071043  54.2487816  66.5900055  44.6159863
  54.4208320  66.4805949  45.4645145  54.7857173  67.2354460  44.3791056
  54.3532820  66.6692056  44.7064960  52.9145253  60.7042898  27.5542068
  52.7320826  60.9214778  26.7283061  53.7770866  60.8181910  27.6100683
  53.0149842  60.7532796  27.4396555  52.5259685  72.5430820  34.9965056
  53.3648584  72.7753753  35.0438818  52.5571454  71.6735131  34.9272092
  52.6541402  72.4487766  34.9929701  53.1512388  72.9631695  39.2978362
  53.6910613  72.8202826  39.9681734  52.4682334  73.3628446  39.6662388
  53.1304542  73.0011366  39.4512784  58.5944972  57.7069308  30.5891092
  59.3231132  57.5285263  30.1429249  58.6839865  58.5487388  30.7998270
  58.7151634  57.8053187  30.5544610  48.5549533  69.1831986  39.4512783
  48.2887948  68.3671103  39.6103774  48.5688097  69.2285141  38.5808299
  48.5174255  69.0688891  39.3466265  65.5330927  59.5109801  37.4855217
  66.1756835  59.5807905  38.0717132  65.7853947  58.8439024  36.9834759
  65.6653059  59.4236149  37.4982496  52.4607280  63.9817070  26.0664542
  51.7465457  63.6955250  26.4786974  52.9451248  64.3213696  26.7070929
  52.4266643  63.9898720  26.2220176  53.3048139  62.7210364  42.0979791
  52.6119936  62.2507344  42.3440523  53.9208466  62.4948669  42.6721498
  53.2932669  62.6177496  42.2188944  48.9642946  69.9690765  36.7324528
  48.7818520  69.9437651  35.8796820  49.6992615  70.4389703  36.7713436
  49.0457010  70.0352127  36.6122446  52.0288698  66.6875768  43.2406636
  52.7528670  66.6728799  43.7271531  52.1304835  67.3971123  42.7428605
  52.1506907  66.7900471  43.2385423  59.4033648  70.1674853  48.1055583
  58.6106628  70.4818365  48.2908203  59.5182575  70.3826321  47.2676368
  59.3029058  70.2458689  48.0093918  62.0764966  66.8908844  32.3950599
  62.1711821  67.6298138  32.8490225  61.4523810  66.4626319  32.8285164
  61.9973997  66.9370164  32.5258747  60.3317440  70.0695056  43.0440880
  60.9056302  69.4322301  43.1989444  60.2532244  70.0699139  42.1750538
  60.4050675  69.9760168  42.9387291  48.9313857  66.8484266  36.8823594
  49.5087359  66.7120717  37.5215840  48.2327918  66.3920050  37.1369179
  48.9134878  66.7606532  37.0145884  55.6881159  68.5018322  35.0962077
  55.4300403  67.6690056  35.0693377  55.7429642  68.7275935  34.2554578
  55.6580937  68.4116093  34.9682214  60.7682209  60.6046772  35.1966170
  60.0638536  60.1155958  35.3550089  60.8167183  60.6169247  34.3254615
  60.6712261  60.5336420  35.0905510  54.6615871  66.0556084  35.5826972
  54.0865462  66.2148252  36.2190933  54.2851547  65.4191493  35.1195423
  54.5218683  65.9853897  35.6081531  58.3289160  64.5279433  40.4419351
  57.9403593  64.1033651  39.7871542  57.6643858  64.7761583  40.9496377
  58.1736088  64.5018154  40.4207219  44.4072690  65.6996159  33.5971413
  44.4932942  65.3228027  34.3784943  45.0348487  65.3256604  33.1191371
  44.5129241  65.5881641  33.6416890  62.1515521  58.2254062  37.9543335
  62.5326033  57.5432233  38.3411209  61.3478806  57.9363664  37.7718999
  62.0891983  58.0821111  37.9847391  59.4328098  68.7578038  28.6396158
  60.2468737  69.0492931  28.5278929  59.3687239  68.1037900  28.0654451
  59.5430837  68.7043233  28.5384995  55.3036006  72.2299555  33.7668470
  55.9409953  71.9911303  34.3120263  55.7291078  72.4336714  33.0321630
  55.4612173  72.2250566  33.7385627  49.9948649  74.4687892  37.6502773
  50.0352794  74.7402743  36.8222553  50.5543173  74.9929800  38.0660561
  50.0831995  74.5863647  37.5894662  55.9438821  67.4501845  28.1043359
  56.3283974  67.2309552  28.8559904  55.6950442  68.2764791  28.2344435
  55.9640894  67.5399991  28.2344436  56.1107362  60.7308260  47.8205943
  55.7960803  61.5007823  47.5575506  55.7897294  60.1678516  47.2358170
  56.0166281  60.7618529  47.6947293  51.4463235  73.0529841  32.4756699
  50.6201353  73.2991578  32.3490978  51.5075226  72.9741922  33.3418758
  51.3337402  73.0774790  32.5845644  62.7872147  59.2676641  41.7663461
  63.5325739  59.0786452  41.3526887  62.3709452  59.7934879  41.2077318
  62.8357122  59.3178787  41.6228035  56.8156809  70.4724467  41.2628860
  56.3168503  71.1840235  41.3413748  57.6257033  70.7925134  41.2247022
  56.8612916  70.6251316  41.2685428  53.0784927  69.7347420  35.5091581
  52.7898175  69.1084891  36.0437308  53.9468275  69.6767707  35.5756261
  53.1645179  69.6334964  35.5982535  63.8662825  64.8782203  35.8273563
  63.5227590  64.1572539  36.1780812  63.9655867  64.6696055  34.9851921
  63.8304867  64.7406407  35.7545243  53.2817200  71.3742671  31.4333946
  54.0363168  71.7555710  31.6469408  52.6887813  71.8253815  31.8880642
  53.3053914  71.4971498  31.5316824  55.7423867  63.3305511  46.5591158
  54.9323643  63.6363291  46.4481000  56.2198554  64.0511094  46.6743742
  55.6927346  63.4820113  46.5598229  54.6015427  72.5451232  36.8074061
  54.0796180  72.6851524  37.4925926  54.9889447  71.7861897  36.9976179
  54.5819128  72.4536756  36.9375138  51.5906611  62.5957041  30.8769016
  51.3031406  62.2258312  30.1400963  52.2777079  63.0651896  30.6152721
  51.6495508  62.6104011  30.7284092  56.0281752  69.5755251  32.2055552
  55.8324535  70.1829986  31.6115855  56.2516098  68.8823195  31.7247226
  56.0316393  69.5632777  32.0471633  54.4260282  66.4609989  32.3236421
  55.1482934  66.6251147  31.8640227  53.9468275  67.1819654  32.2175760
  54.4624013  66.5908219  32.2402035  62.3853790  62.7973788  37.7033106
  61.5464891  62.8235067  37.4671369  62.4558157  63.4444524  38.2838452
  62.2722183  62.8969914  37.7542222  52.0767899  68.8668062  41.4290560
  52.5888996  69.1452315  40.7799320  51.7904242  69.6057356  41.7953373
  52.1102762  69.0170415  41.3880438  60.8323068  59.6959165  32.4360721
  61.5349421  59.4966913  31.9580680  60.5667257  58.9235108  32.7429565
  60.8969700  59.5522131  32.4106163  49.1634805  63.3738254  31.7254297
  49.2650942  64.1764415  32.0535272  49.9590692  63.1725590  31.4277377
  49.2962711  63.4624152  31.7289652  55.5951624  60.9594450  41.4891602
  55.4034821  60.9749585  42.3391026  56.4450220  61.1558125  41.4658257
  55.6927346  60.9908802  41.6114897  49.9798537  63.4885432  39.4675418
  49.8384029  62.6369372  39.5919926  50.2639101  63.5314092  38.6437625
  50.0006384  63.3685182  39.3643043  60.1337130  65.3252522  33.6119907
  59.8871844  65.2448273  34.4456696  60.4622253  64.5405990  33.4182434
  60.1458373  65.1978787  33.7067430  56.0934157  68.0609241  43.0242890
  56.2377533  68.6410449  42.3886000  56.4409806  68.4385537  43.7292744
  56.1661618  68.2029945  43.0341885  58.2654074  67.2599409  40.8068021
  57.5177388  67.4530423  40.4016300  58.4195600  66.4344629  40.5692143
  58.1776502  67.1664520  40.7113427  58.5055851  61.1549960  41.6963425
  58.9628466  61.8873934  41.8236217  58.5812180  60.7316425  42.4550681
  58.5846821  61.2007198  41.8264502  50.7488843  61.4015779  42.7852869
  50.2131032  60.7896138  43.1013636  50.8106607  61.9763915  43.4386535
  50.6784475  61.3962707  42.9288296  62.9783177  54.3339835  35.5657268
  63.0966746  54.7916298  34.8324571  62.8045353  53.5285096  35.2793486
  62.9702348  54.2833607  35.4158202  56.3838229  63.1452064  38.5405249
  55.5934304  62.9643524  38.8622585  56.7798852  62.3679016  38.5235544
  56.3255106  63.0039525  38.5857798  58.8976060  65.6212323  43.0228748
  58.8335201  66.4822279  42.8948885  59.0373247  65.3044316  42.2224299
  58.9091530  65.7012489  42.8856961  57.5795154  68.3144462  37.1644951
  57.1557403  68.5148961  36.4283969  57.4040009  67.4673310  37.2769251
  57.4906034  68.2193244  37.0718641  52.8677599  68.8096514  32.5972924
  53.0242218  68.7443316  33.4528916  53.2078192  69.5845066  32.3851603
  52.9410833  68.9145712  32.6927518  59.4056743  68.1854397  31.4666287
  59.9472289  67.6824778  31.9304907  59.7203302  68.1319592  30.6555772
  59.5321140  68.1033818  31.4150099  60.5546013  63.0790702  41.5188587
  60.7687982  62.4401616  40.9651941  59.9379912  63.5236525  41.0896449
  60.4951342  63.0500845  41.3739018  49.4411860  65.9931464  32.9133691
  49.8210825  66.4116009  32.2493958  48.8667225  66.5744920  33.2202534
  49.4123185  66.1409323  32.8610432  62.7185101  64.6879767  42.4571894
  61.9061782  64.3805657  42.5385067  63.1775035  64.2078767  43.0214607
  62.6665485  64.5716259  42.5526488  59.9460741  56.1890637  36.5075930
  59.0754299  56.1629358  36.4609240  60.2001082  56.0167829  35.6901776
  59.8554301  56.1600781  36.3796067  56.9178721  68.2458604  25.4449073
  57.2071245  69.0223487  25.7192647  57.0050519  67.7347336  26.1463572
  56.9732977  68.2850523  25.5891571  59.8138608  66.0939838  47.2400597
  60.2838239  66.7181955  47.6268471  59.8600488  65.4256814  47.7993811
  59.8906484  66.0874519  47.3800668  56.9709882  58.1996866  37.9649400
  56.4548370  57.5077057  38.0900979  56.4103811  58.8667643  37.9111999
  56.8116395  58.1960123  37.9755466  59.0402115  58.7389826  39.7942253
  58.6533868  58.7638857  40.5755783  58.5535052  58.1731504  39.3416770
  58.9114624  58.6585577  39.8430157  65.0152095  65.3052481  38.4181955
  64.5879703  65.2178829  37.6630055  64.3778148  65.4130256  39.0036799
  64.8581702  65.3085141  38.3927397  58.7059257  55.6256811  42.0852513
  59.3352375  56.1617111  41.8073583  58.8745120  55.5334170  42.9366079
  58.8237051  55.6918173  42.1701041  58.5073172  60.4128006  44.3578924
  59.3346601  60.1413155  44.4137539  58.5281018  61.2088848  44.7142743
  58.6326022  60.4907760  44.4194107  53.0842662  67.5591869  37.5449185
  52.2430668  67.4595743  37.7528079  53.2932670  68.3287349  37.8963506
  52.9907354  67.6583912  37.6276500  50.5618229  65.1811406  35.3733936
  50.1674926  65.2554418  34.5984045  50.0058345  65.5669352  35.9242298
  50.4221041  65.2493180  35.3401596  62.1983175  58.1592700  35.0537815
  62.4032769  58.0915008  35.8994812  61.8709599  58.9651521  34.9858992
  62.1798423  58.2678640  35.1697470  56.8959326  65.4873268  36.7946783
  56.5922464  64.9329256  37.3957190  56.1938747  65.6665478  36.3074817
  56.7475536  65.4318050  36.8116488  55.9525424  62.7973788  31.3591484
  56.2285158  62.0792700  30.9469052  56.5524093  63.3958708  31.1512591
  56.0818688  62.7794158  31.2672246  54.9577677  72.7022989  41.5018880
  54.8498032  72.7125051  42.3680938  55.1673459  73.5277769  41.3123834
  54.9727788  72.8264063  41.6022972  65.4516863  58.7124464  34.5340580
  64.8391177  59.1994866  34.9194312  65.5481038  58.0367955  35.0778231
  65.3754761  58.6842773  34.6719438  59.4535944  60.4687305  29.6338080
  59.9079691  60.6397866  30.3585924  59.9275990  59.8555416  29.2335855
  59.5904264  60.4038190  29.6811841  52.9751469  69.9535631  38.9640818
  52.3839403  70.5945129  38.9343833  53.7372493  70.3773248  38.9372118
  52.9999730  70.1111469  38.9555965  55.0195442  61.7804324  44.1980863
  54.6281007  61.1337671  44.6336641  55.1881305  62.3715759  44.8175118
  54.9866352  61.7718592  44.3543569  56.7948964  67.1729839  30.7383087
  57.5391009  67.5604116  30.9766037  56.9409660  66.3287265  30.9023575
  56.9259549  67.1060312  30.7977056  58.7128539  58.9680098  35.7714948
  57.8664585  59.1402906  35.6456298  58.7099672  58.1629442  36.1080776
  58.5875689  58.8741127  35.8026075  59.7826840  62.7455313  36.6377006
  59.3086794  62.2197075  37.1482317  60.1544976  62.1984786  36.0691868
  59.7676729  62.5871309  36.6292153  50.1599870  64.7426819  42.0060552
  51.0225483  64.6422529  41.9197882  49.8291653  64.1621529  41.4446124
  50.2385066  64.6418446  41.9105958  61.7110340  63.6391867  29.7002760
  61.1833358  63.7220611  29.0108469  62.1706048  64.3809739  29.6967405
  61.7012190  63.7612530  29.5977455  53.5201656  63.5669268  38.6670970
  52.8954726  63.5787660  38.0596923  53.1847251  64.0429444  39.3162210
  53.3787148  63.6387785  38.6727539  53.7043405  61.9094387  24.7243655
  53.3556209  62.5614112  25.1875204  53.2239851  61.8951500  23.9967526
  53.5813649  62.0037441  24.6854746  50.2327332  71.6269729  40.1074734
  49.7027256  70.9362168  40.1569709  50.5052425  71.6179914  39.2787443
  50.1952054  71.5236860  39.9922150  60.4333577  69.0692973  40.0813106
  59.8190570  68.5251023  40.3761741  60.9500862  68.5557210  39.6018922
  60.4189240  68.9129382  40.0537334  59.6729874  70.1397243  37.8157405
  59.2457482  69.5146962  37.3822840  59.6654819  69.8572165  38.6416412
  59.6089015  70.0050024  37.8737232  52.7892401  65.1762416  40.8845839
  52.9485888  64.4205740  41.2897560  52.6085295  65.7253356  41.5386576
  52.7857760  65.1456230  41.0408545  60.7312704  57.3423652  41.4396628
  60.2353266  57.5387326  40.7488195  61.4881766  57.7416320  41.2685430
  60.7699529  57.4301386  41.3116765  58.0015584  61.0165998  38.0299939
  58.0258071  60.4826110  37.3412719  58.2527058  60.5083307  38.6925529
  58.0425503  60.8626902  38.0264583  45.5123174  68.2997493  37.4643083
  45.4066623  68.2544337  36.5995167  44.7623394  68.6451273  37.7457368
  45.3858777  68.3438401  37.3780412  56.4646519  69.3097556  45.5125977
  55.6142150  69.4469270  45.6483622  56.6274647  68.5761334  45.9573679
  56.3630383  69.2211657  45.5981577  55.7031270  66.2597326  39.7079582
  54.8723199  66.4271144  39.5014830  55.6482787  65.8833277  40.4928467
  55.5720684  66.2287057  39.7928110  53.5115053  59.7506219  45.3435993
  54.1367756  59.2068352  45.6165425  53.0565533  59.2701136  44.7743783
  53.5363313  59.5995700  45.2997586  54.0767313  64.5352917  30.2369700
  54.2170274  65.0325382  30.9398341  54.5749846  63.8339212  30.3783913
  54.1708394  64.5054896  30.3621279  54.1067536  65.4020028  27.5662276
  54.7412615  65.9980453  27.5011738  54.1893147  65.1023486  28.3808147
  54.2124087  65.4460937  27.6765363  55.6846519  61.3334004  27.5407718
  56.0062360  60.8537086  26.8866981  55.9473462  62.1433650  27.3498530
  55.7712544  61.3823902  27.4163210  61.0805674  60.7206198  39.9031197
  61.5060745  60.2678724  39.2914724  60.4662667  60.1666268  40.1795985
  61.0534319  60.5720174  39.8536223  50.6120524  67.5987869  30.8351822
  51.1212753  68.1952377  31.2163128  51.0854796  67.3313843  30.1528242
  50.7563899  67.6473685  30.7906345  59.5199896  57.1921298  33.3121775
  58.8768214  57.0418944  33.8806913  59.1799303  56.9463643  32.5470879
  59.3744974  57.1333420  33.2824790  64.1099243  65.1480724  32.7351783
  63.4390433  65.6910427  32.6064849  64.8038993  65.6175580  32.4933478
  64.1128110  65.2978996  32.6807311  64.2727370  61.6036608  35.6442156
  64.6254981  61.1766331  36.3187955  63.4142172  61.5187452  35.7743233
  64.1976815  61.5281349  35.7637167  52.9711055  64.2344128  33.7025003
  52.2523045  64.6508260  33.9697866  53.3423418  64.7998366  33.1516641
  52.9202987  64.3793409  33.6607810  62.2710636  64.8671977  39.5926999
  62.2508564  64.6855272  40.4461777  62.3189837  65.7383995  39.5686582
  62.2745277  64.9688515  39.7150293  58.7457630  63.2742128  29.0398382
  58.1522469  63.5959124  28.4882949  58.7832907  62.4283223  28.8319488
  58.6632019  63.1966456  28.9281154  65.7051431  56.7255020  36.5726469
  65.1982295  56.0184159  36.5047646  66.5018864  56.3948209  36.7027545
  65.7478670  56.5728171  36.5825464  61.6215446  63.2321632  32.4700133
  61.3929139  63.2554334  31.6278491  61.8813523  62.4079099  32.5895143
  61.6261634  63.1137712  32.3625330  55.9034675  65.0856105  42.0725233
  55.3913578  64.4777288  42.4310264  55.7314171  65.8012698  42.5399209
  55.8024312  65.1019404  42.1941456  50.7500390  63.5293680  44.7227595
  50.5802980  64.1895055  44.1775801  50.3066339  63.7400242  45.4440084
  50.6599723  63.6579663  44.7489224  54.6760209  61.7698178  33.7654328
  55.1517575  62.1315258  33.1304509  54.1748808  62.4254646  34.0454471
  54.6725568  61.9192367  33.7131069  59.7803745  63.0080350  44.5127488
  60.3375175  62.7794159  43.8805954  59.4564810  63.7686015  44.2362701
  59.8150155  63.0864186  44.3783985  47.6502454  66.4340546  39.9816084
  47.1029173  65.7641192  40.0996953  48.4394832  66.0670394  40.0459552
  47.6854638  66.2805532  40.0084785  57.4986862  66.0948003  45.4779495
  58.2498189  66.4099680  45.7919050  57.6909439  65.8927174  44.6513417
  57.6378277  66.1115385  45.4022891  56.7186862  63.9139378  27.1327712
  57.0985827  63.9319007  26.3478827  55.9779458  64.3593367  27.0118559
  56.6655700  63.9821153  26.9991280  64.3472153  62.2221569  32.7203291
  64.3466379  62.0670226  33.5787567  64.1428333  63.0684556  32.6644676
  64.3171930  62.3242190  32.8391230  46.4089423  65.6461354  37.1362107
  46.2311185  65.1937963  37.8617023  46.1208446  66.4487515  37.3200585
  46.3402377  65.6983912  37.2705610  62.0713005  66.9019071  36.3739498
  62.5666670  66.1842066  36.3343518  61.2612780  66.5989869  36.2593985
  62.0256898  66.7516717  36.3513224  57.5171616  70.7516884  28.5236502
  56.7082939  70.4283558  28.4769812  58.0246525  70.0450107  28.4564751
  57.4721283  70.5998201  28.5066797  48.1461893  68.1789078  34.2483866
  47.2807413  68.1674768  34.1366638  48.2460709  67.9919300  35.0955006
  48.0336060  68.1495139  34.3572811  57.6412918  58.1384494  42.3475879
  57.7740823  57.3415487  42.6756854  58.0258071  58.6650897  42.9274154
  57.7169247  58.0984410  42.4819382  60.7145273  55.0614820  38.9456972
  59.9091237  54.9512549  39.2624810  60.5852008  55.1627275  38.0886838
  60.5765406  55.0598490  38.8665012  64.1711234  61.2260312  39.5396669
  63.5874222  61.7269518  39.1274236  64.4915528  60.7189868  38.9060992
  64.1324409  61.2252147  39.3855176  56.7106033  60.1400906  29.8155344
  57.5321727  60.3099219  29.5737039  56.2475684  60.2948167  29.0921641
  56.7637195  60.1882639  29.6726988  55.3001365  58.1343669  40.5953773
  55.8445778  57.7934795  41.1858114  55.3538300  58.9929130  40.7375057
  55.3890484  58.2098928  40.7035646  51.1131923  71.8960085  37.4692580
  51.7176781  71.8555919  36.8406401  50.9059236  72.7431237  37.4996636
  51.1720821  72.0148087  37.3808697  46.3483206  70.8794702  37.3391504
  46.2507484  70.0690974  37.6481560  47.1312075  70.8586496  36.9537772
  46.4499342  70.7561792  37.3278366  26.4009520  -4.2296568  23.3390671
  25.5447416  -4.0688070  23.3899788  26.4477174  -5.1004504  23.3595732
  26.2808632  -4.3345766  23.3496737  20.7850660   5.3066150  19.1027903
  20.0333560   4.9281688  18.8743948  21.2336672   5.3384583  18.3546713
  20.7400327   5.2551757  18.9585405  29.7103237   2.0389958  32.9451128
  30.4170004   1.5441988  33.0738062  29.8991172   2.4799039  32.2153786
  29.8431143   2.0308308  32.8560173  25.7779911   7.6805788  20.4724562
  26.1619291   8.2492687  19.9329337  25.7139053   6.9555298  19.9930378
  25.8253338   7.6581251  20.3218424  29.2461341  -2.1704524  25.9822323
  29.7917301  -1.4919437  26.0416293  29.1878218  -2.3117063  25.1223905
  29.3177256  -2.0912522  25.8634384  22.3635416   5.3184542  21.3690675
  22.4645779   4.5084896  21.6787803  21.7677162   5.2241488  20.7390354
  22.2907955   5.1849570  21.3216914  31.0226410  -0.7419917  16.8556051
  30.9065936   0.0087769  17.2848189  31.8182297  -0.9995964  17.1052138
  31.1231000  -0.6685070  16.9560142  22.2036156  10.2362131  22.7705532
  22.8473611  10.6775295  23.1601690  22.5292411   9.4315557  22.6835790
  22.3467985  10.1827326  22.8151009  22.9056736   3.2474106  18.1425393
  23.2272577   3.7879313  17.5386701  23.5528832   2.6770877  18.2747683
  23.0482791   3.2433281  18.0732429  25.1446379   1.6360546  18.2139571
  25.5840015   1.0277647  18.6594344  24.9951042   1.2567919  17.4425036
  25.1867845   1.4899017  18.1658739  22.6118022   0.2304558  25.4158397
  23.2567025  -0.2622999  25.0969345  22.8519799   0.3729344  26.2424475
  22.7428607   0.1782000  25.4907930  25.1504113   3.0759464  25.0665289
  25.4327356   2.2810869  24.8452045  25.8790274   3.5540051  25.0870350
  25.2993677   3.0294061  25.0368305  35.1322202   2.1818826  22.0401120
  34.3019905   2.3929470  22.2034537  35.0831454   1.3555880  21.7643404
  35.0028937   2.0908432  22.0238486  17.1217785   6.2190499  22.2699215
  16.6385363   6.9440989  22.2458799  17.9341104   6.5166629  22.3809373
  17.1708533   6.3692853  22.2826494  23.1931939   5.0122680  24.8749030
  22.6758881   4.6530095  24.2710338  23.8906331   4.4884855  24.8855096
  23.2197520   4.8820368  24.7879288  26.8495531   5.4617494  30.8365203
  26.9378877   5.2743635  31.6843413  27.2785244   4.8154924  30.4370050
  26.9257634   5.3380502  30.9036954  24.4165991   4.7448654  29.8182865
  23.8536826   4.3321264  30.3422526  25.1787015   4.6701560  30.2376008
  24.4460440   4.6726055  29.9575865  19.9761983   6.7346675  22.4219495
  20.6782562   6.2198664  22.4792252  19.8959466   7.0620827  23.2266370
  20.0685743   6.7060901  22.5492287  21.0240889  -3.0277738  31.5499910
  21.1961393  -3.1371843  32.3985192  21.5610247  -2.3823332  31.3131103
  21.1285893  -2.9485736  31.6405007  19.3012758   2.9253027  21.9305103
  20.1401657   3.1575960  21.9778865  19.3324527   2.0557339  21.8612139
  19.4294476   2.8309974  21.9269748  19.9265461   3.3453902  26.2318409
  20.4663686   3.2025033  26.9021781  19.2435407   3.7450653  26.6002435
  19.9057615   3.3833573  26.3852830  29.3506346  -0.9755097  21.4263433
  30.1063861  -0.5423583  21.4652342  29.4568670  -1.6250327  21.9998069
  29.4776516  -1.0077613  21.5161459  32.3886517   2.8518180  22.1765836
  31.9521749   2.8554923  22.9324807  32.0549432   3.5323679  21.7445413
  32.2749137   2.9530636  22.2246669  26.9615591   4.8926513  33.5008986
  27.7456007   5.0057361  33.8664728  26.7612185   4.0667650  33.6967672
  27.0481616   4.7873233  33.5843372  27.1185984   6.8036615  27.1475442
  26.3201230   6.5636115  27.4049311  27.5671995   6.8551008  27.8942490
  27.0660595   6.7759006  27.2960366  35.5230863  -0.4300900  21.0685473
  36.1847297  -0.9910231  20.9681382  34.8822275  -0.9248869  21.3938164
  35.5259731  -0.5864491  21.1017813  15.7396020   0.3512973  23.6664574
  15.5571593   0.3259859  22.8136867  16.4745689   0.8211910  23.7053483
  15.8210084   0.4174335  23.5462493  31.8095694   0.5864483  20.8097462
  32.0451283   0.7309682  19.9824313  31.9585258   1.3506891  21.2028976
  31.8661497   0.7203537  20.7461066  33.6386151  -0.5733851  18.6467066
  33.9694368  -0.0406211  18.0407161  34.2119239  -0.5194964  19.3029017
  33.7719830  -0.4864283  18.6544848  26.1786721   0.5497060  35.0395630
  25.3859702   0.8640572  35.2248250  26.2935648   0.7648529  34.2016415
  26.0782131   0.6280897  34.9433965  28.8518040  -2.7268949  19.3290646
  28.9464894  -1.9879655  19.7830271  28.2276883  -3.1551473  19.7625210
  28.7727070  -2.6807628  19.4598793  27.1070514   0.4517264  29.9780927
  27.6809375  -0.1855492  30.1329491  27.0285317   0.4521346  29.1090584
  27.1803748   0.3582375  29.8727338  22.4634232  -1.1159471  22.0302124
  22.2053476  -1.9487736  22.0033424  22.5182715  -0.8901858  21.1894625
  22.4334010  -1.2061700  21.9022261  25.1042233  -5.0898359  27.3759397
  24.7156666  -5.5144142  26.7211589  24.4396931  -4.8416210  27.8836424
  24.9489161  -5.1159638  27.3547265  32.4290661   1.8226241  29.9865780
  32.1929299   0.9914306  29.8677841  33.0733890   1.7711849  30.5720624
  32.4885332   1.6923929  30.0551674  22.0789079   2.6121763  20.7008517
  22.7163026   2.3733510  21.2460310  22.5044151   2.8158922  19.9661677
  22.2365246   2.6072773  20.6725674  16.7701722   4.8510099  24.5842820
  16.8105867   5.1224950  23.7562600  17.3296246   5.3752007  25.0000608
  16.8585068   4.9685854  24.5234708  33.4527082   1.6070690  26.0494075
  33.1472899   2.3398747  26.4107390  32.7333298   1.2008620  25.7686861
  33.3014424   1.6552423  26.0607212  24.4610551   3.0894185  22.3802303
  24.5349560   2.9269357  23.2344153  25.2780058   3.2784375  22.1362784
  24.5926910   3.0930928  22.4700328  18.2216308   3.4352048  19.4096746
  17.3954426   3.6813785  19.2831025  18.2828299   3.3564129  20.2758804
  18.1090475   3.4596997  19.5185691  23.0015137   6.0528928  17.1115776
  23.2913436   5.6617910  16.3875003  23.7318618   6.2345633  17.5521051
  23.1522021   6.0222742  17.0698583  23.5909882   0.8546674  28.1968907
  23.0921576   1.5662442  28.2753795  24.4010107   1.1747341  28.1587069
  23.6365989   1.0073523  28.2025475  20.9421053   8.0296311  20.1775926
  20.7221348   7.7393666  20.9702593  20.7215575   7.3711266  19.6493838
  20.8768647   7.8896019  20.2164835  19.8538000   0.1169627  22.4431628
  19.5651249  -0.5092901  22.9777355  20.7221348   0.0589915  22.5096308
  19.9398252   0.0157172  22.5322582  23.1089008   9.4025701  18.9606618
  23.7613066   8.8702143  19.1897644  22.4114617   9.0494353  19.3474492
  23.1019726   9.2715224  19.0518786  31.1028927   1.7230115  18.3037598
  31.6686959   2.3823325  18.2196140  30.4556830   2.0679813  18.7754000
  31.0907683   1.8712056  18.3610354  21.3768500   2.9273440  23.7414108
  20.8549253   3.0673731  24.4265973  21.7642520   2.1684104  23.9316225
  21.3572201   2.8358964  23.8715185  27.5735505   4.6668899  17.7274677
  27.3322181   3.9336760  17.3201742  27.7536838   5.2155756  17.0741010
  27.5643129   4.6391290  17.5704900  18.8520972  -0.7509731  28.3630607
  19.3642069  -0.4725478  27.7139367  18.5657315  -0.0120437  28.7293420
  18.8855835  -0.6007377  28.3220485  33.0364387  -1.6136018  21.9234394
  32.9498361  -1.4580592  22.7769173  32.5814867  -0.9697942  21.5493799
  32.9567644  -1.4960263  21.9941501  30.8038252   2.4158089  24.3346735
  30.6652611   3.1139135  24.8395477  30.0238250   2.2606745  23.9782917
  30.6681479   2.4958255  24.3573009  29.1416337  -1.2845536  30.5869117
  29.1364375  -2.1565719  30.5911543  29.8477331  -1.0857367  30.1138572
  29.2461341  -1.3841662  30.5176152  22.8687230  -1.5568552  29.9582937
  23.0130606  -0.9767344  29.3226047  23.2162879  -1.1792255  30.6632791
  22.9414692  -1.4147848  29.9681932  25.0407148  -2.3578384  27.7408068
  24.2930462  -2.1647369  27.3356346  25.1948673  -3.1833164  27.5032190
  24.9529575  -2.4513272  27.6453474  21.9414985   6.6334220  26.8243963
  22.0904549   6.0737136  26.1717368  22.7214987   6.7126222  27.2076482
  22.0789079   6.5619785  26.7840913  32.2991625   1.7736343  15.0963234
  31.9198433   0.9873480  15.0892523  31.6357870   2.3223200  14.9534878
  32.1450099   1.7381167  15.0744031  24.4668286   6.8048863  28.1028454
  24.3911957   6.1357673  28.6579243  24.3958145   7.5066651  28.6169121
  24.4448893   6.8093770  28.2605302  25.1238533   5.3249862  18.9352060
  25.8888424   5.0559505  18.6134725  25.0216623   4.8399872  19.6522123
  25.2220028   5.2139426  18.9931888  28.5434989   1.1616701  23.2004742
  27.8679991   0.9301933  23.7018129  28.5527365   0.5537884  22.5746847
  28.4453493   1.0375626  23.1820894  25.6729133  -3.9965470  29.9568795
  25.6088274  -3.1355513  29.8288932  25.8126321  -4.3133477  29.1564346
  25.6844603  -3.9165303  29.8197008  30.5451723   4.0181834  15.4314920
  30.6271561   4.8248820  15.1076371  31.0301466   4.0377793  16.1555693
  30.6288881   4.1402496  15.4901819  24.3548227  -1.3033331  24.0984998
  23.9310476  -1.1028831  23.3624016  24.1793082  -2.1504483  24.2109298
  24.2659107  -1.3984549  24.0058688  23.8559920  10.2117182  26.5606455
  24.3455851   9.5127972  26.3782120  23.2844153   9.9141052  27.1482512
  23.8444450  10.0643406  26.6207496  30.0526924   2.7779252  35.5133246
  30.8661789   2.5064401  35.6738378  29.8921890   2.4786792  34.7093442
  30.1496872   2.6934178  35.4178652  28.7403754   6.3831657  19.8982855
  28.3483545   6.0798372  19.1805721  28.8956826   7.2200747  19.7087809
  28.7057343   6.4615494  19.7639352  28.9043428   2.9481646  19.8388885
  28.5458083   3.1196289  20.6152918  28.4182139   3.4094852  19.2816884
  28.7802125   3.0420617  19.8714155  26.5891681  -3.5237954  34.1740643
  27.0591312  -2.8995838  34.5608518  26.6353561  -4.1920979  34.7333858
  26.6659557  -3.5303274  34.3140715  30.0648168   3.8385542  30.7856086
  30.7027888   3.3445738  30.4518542  29.4222259   3.7662943  30.2008313
  30.0642394   3.7544551  30.6498441  30.1202424   4.5305350  27.4261443
  30.9094803   4.1794415  27.5463525  30.2946022   5.3441739  27.1638077
  30.2622706   4.5991208  27.4049311  19.8595735  -2.0585924  24.4789232
  19.0183741  -2.1582050  24.6868126  20.0685743  -1.2890444  24.8303553
  19.7660427  -1.9593881  24.5616547  23.6712400  -4.1304525  23.7286829
  23.3675537  -4.6848536  24.3297237  22.9691820  -3.9512315  23.2414864
  23.5228609  -4.1859742  23.7456535  21.7330751   3.0845196  28.4358927
  21.6251106   3.0947258  29.3020985  21.9426532   3.9099976  28.2463881
  21.7480862   3.2086271  28.5363019  19.7504543   0.3357838  25.8980865
  19.1592476   0.9767337  25.8683880  20.5125566   0.7595456  25.8712164
  19.7752803   0.4933677  25.8896012  35.8694964   0.1663608  26.8958143
  35.9278088   0.6150257  27.6418120  35.2361432   0.5762421  26.4588223
  35.7846259   0.2937343  26.9410691  29.5094059   5.7867150  23.3312889
  29.3113748   6.2757965  22.6369101  28.8881770   5.9908392  23.9097023
  29.3881623   5.8883688  23.3136113  32.8216644  -1.8120104  24.9823833
  32.5814867  -2.6513689  24.9866260  33.3008651  -1.7319937  25.7064607
  32.8568827  -1.9238704  25.0898636  31.4267861  -0.6468698  28.8658138
  32.1502060  -1.0996171  28.6869158  31.1617823  -0.3664032  28.0830466
  31.4949134  -0.6717729  28.7236853  17.0080405   2.0091936  27.0414781
  16.4780329   1.3184375  27.0909756  17.2805498   2.0002121  26.2127490
  16.9705127   1.9059068  26.9262197  27.2086650  -0.5484819  27.0153153
  26.5943643  -1.0926769  27.3101788  27.7253935  -1.0620583  26.5358969
  27.1942313  -0.7048410  26.9877381  26.4482947   0.5219451  24.7497451
  26.0210556  -0.1030831  24.3162887  26.4407892   0.2394372  25.5756459
  26.3842089   0.3872231  24.8077279  23.2399592  -0.3080237  32.4466024
  22.3895223  -0.1708522  32.5823669  23.4027720  -1.0416458  32.8913726
  23.1383456  -0.3966135  32.5321623  22.4784343  -3.3580467  26.6419629
  21.6476272  -3.1906649  26.4354877  22.4235860  -3.7344516  27.4268514
  22.3473758  -3.3890736  26.7268157  33.8603175  -1.6842287  27.3688687
  34.4521015  -1.0445036  27.4006885  34.2962169  -2.3819250  27.6580754
  34.0121606  -1.6923937  27.4169520  25.6896565   2.7375086  27.9946581
  25.1821656   3.2910932  28.4387212  25.3923211   2.7983375  27.1765356
  25.5701450   2.8281397  27.9395038  28.3004345   6.6538343  15.9250525
  27.5833655   6.4799205  15.4597762  28.9511083   6.4190916  15.3926011
  28.2906195   6.5934136  15.7779743  24.9339050   7.6699644  24.9003588
  24.7104704   6.9118473  25.2687615  24.4448893   7.6997665  24.1784028
  24.8282499   7.5621868  24.8480329  26.9910039   1.8381376  32.4515522
  26.9505894   1.1931053  31.8660678  27.8033358   1.7817993  32.7640934
  27.1053193   1.7340343  32.4112471  23.5817507   7.8900102  22.3540673
  23.1677905   7.2274232  21.9644514  24.2664881   8.0377961  21.8336367
  23.6215879   7.8140760  22.2197170  26.9482801   7.0490187  23.1064289
  26.5499084   7.1592457  22.3385110  26.3334021   7.2572253  23.6890849
  26.7981690   7.0963755  23.0795589  34.6824644   1.6242154  16.4907380
  35.0658249   2.3733510  16.7205477  33.8868757   1.8707974  16.2319369
  34.6218426   1.7711848  16.4864954  24.2739936  -3.5229790  32.4119542
  25.0251263  -3.2078113  32.7259096  24.4662512  -3.7250619  31.5853464
  24.4131350  -3.5062408  32.3362938  28.8466078  -2.7158721  23.3079545
  29.3419743  -3.4335726  23.2683565  28.0365854  -3.0187924  23.1934031
  28.8009971  -2.8661075  23.2853270  30.9117897   0.0344966  25.9956673
  31.3372968  -0.4880612  25.4427098  30.5474817   0.6325804  25.4745296
  30.9204499   0.0455193  25.8365683  20.5471976   8.3309184  24.7554019
  20.8618535   9.1445572  24.7631801  20.9565390   7.9459402  25.4236178
  20.6540074   8.3937886  24.8558110  27.4996496   3.7479230  22.3257831
  27.9707674   4.4619493  22.4947816  27.8356675   3.1477981  22.8617700
  27.6191611   3.7650695  22.4290207  29.5873481   5.3580544  34.5049903
  29.6970446   4.5689104  34.8606650  29.9164377   5.2686480  33.7024241
  29.6525887   5.2286397  34.4392294  28.1370442   3.5397165  29.0885523
  27.5891388   2.9155048  28.8205589  28.5983471   3.7291437  28.3729603
  28.1237652   3.4756215  28.9435955  17.8884997   2.2782292  24.4032627
  18.4929854   2.2378126  23.7746448  17.6812309   3.1253444  24.4336683
  17.9473894   2.3970295  24.3148744  27.7028769   4.5448237  25.6194865
  28.5227143   4.4011203  25.8811160  27.4222846   5.1694436  26.1611302
  27.7825512   4.6158589  25.7382804  44.1742419  12.2013089  18.5837741
  44.1436423  13.0557726  18.7556010  44.7723768  11.9008381  19.1423885
  44.2579577  12.2829585  18.6912543  37.3742104  11.2888740  23.3390671
  36.5179999  11.4497238  23.3899788  37.4209758  10.4180804  23.3595732
  37.2541215  11.1839542  23.3496737  31.7583244  20.8251458  19.1027903
  31.0066143  20.4466996  18.8743948  32.2069255  20.8569891  18.3546713
  31.7132910  20.7737065  18.9585405  37.2108204  21.2476827  14.5313450
  36.8759572  21.9253749  14.0957672  37.7235074  20.8582139  13.9430322
  37.2373785  21.2901405  14.3800242  40.2193925  13.3480784  25.9822323
  40.7649885  14.0265870  26.0416293  40.1610801  13.2068245  25.1223905
  40.2909839  13.4272786  25.8634384  41.9958994  14.7765391  16.8556051
  41.8798520  15.5273077  17.2848189  42.7914880  14.5189344  17.1052138
  42.0963583  14.8500238  16.9560142  26.5333044  16.8590136  20.9943009
  26.2983229  16.0257789  20.8875278  26.6718685  17.1394802  20.1804210
  26.5188707  16.7773640  20.8585364  28.8323132   9.0275867  23.8927317
  28.2128163   8.4368514  23.7237332  28.7306995   9.6187302  23.2591640
  28.7260807   9.0279950  23.7732306  33.8789319  18.7659414  18.1425393
  34.2005160  19.3064621  17.5386701  34.5261416  18.1956185  18.2747683
  34.0215374  18.7618589  18.0732429  35.9291027  10.7675409  18.2259780
  36.6271192  10.9463536  18.7181243  36.2443360  10.2445748  17.6030169
  36.0786364  10.7169181  18.2061790  28.5592265  12.5728149  26.1370886
  28.4350961  13.1590594  26.7720705  29.2110549  12.0788345  26.4383161
  28.6365914  12.5866953  26.2756815  36.1178963  17.1545854  18.2139571
  36.5572598  16.5462954  18.6594344  35.9683625  16.7753227  17.4425036
  36.1600428  17.0084325  18.1658739  33.5850606  15.7489866  25.4158397
  34.2299608  15.2562309  25.0969345  33.8252383  15.8914652  26.2424475
  33.7161191  15.6967308  25.4907930  34.1017891   6.1367806  22.3081055
  33.7721221   6.5878949  21.6384753  33.4262893   6.0583969  22.8554061
  33.9528327   6.1918941  22.2904278  39.7188299  15.5073035  15.1670341
  39.6339594  16.3634002  15.3119909  40.2072682  15.2317359  15.8352500
  39.7777196  15.5930357  15.2872422  41.3094299   2.1253328  20.5530665
  40.9947740   2.8156807  20.9851088  40.7921240   2.0698111  19.8516166
  41.1858769   2.2188217  20.5127614  40.6506732  12.1257829  16.6668076
  40.1218204  12.3417463  17.3265382  41.1731752  12.8193968  16.5869045
  40.6495185  12.2600966  16.7523675  46.1054785  17.7004134  22.0401120
  45.2752488  17.9114777  22.2034537  46.0564038  16.8741188  21.7643404
  45.9761521  17.6093740  22.0238486  32.5406340  16.0221046  15.4675544
  31.9563555  16.5271078  15.8741408  32.1376435  15.7963433  14.7272136
  32.3945644  16.0629294  15.4180569  36.9983555  12.2686698  13.9444464
  37.2379558  12.4764682  13.1319807  37.3199396  11.4644207  14.0533409
  37.0820713  12.1800799  13.8405017  32.3073845   4.1980094  17.7904002
  33.0619813   4.5658411  17.5521052  32.1301379   4.5719648  18.5583182
  32.3928323   4.3078282  17.8688891  45.6008744  10.3474534  25.8351542
  44.7637165  10.4176722  26.0699136  45.5696975  10.3499029  24.9625844
  45.4727026  10.3584762  25.7411090  31.9973473  12.4907570  31.5499910
  32.1693976  12.3813465  32.3985192  32.5342830  13.1361976  31.3131103
  32.1018477  12.5699572  31.6405007  30.6630910   6.6050413  14.4882115
  30.4806483   6.8222294  13.6623108  31.5256523   6.7189426  14.5440730
  30.7635499   6.6540311  14.3736602  30.2745342  18.4438335  21.9305103
  31.1134241  18.6761268  21.9778865  30.3057111  17.5742647  21.8612139
  30.4027059  18.3495282  21.9269748  36.3430629   3.6076824  17.5231139
  37.0716789   3.4292779  17.0769295  36.4325522   4.4494903  17.7338317
  36.4637291   3.7060702  17.4884657  40.3238929  14.5430211  21.4263433
  41.0796444  14.9761725  21.4652342  40.4301254  13.8934981  21.9998069
  40.4509100  14.5107695  21.5161459  43.3619100  18.3703488  22.1765836
  42.9254332  18.3740231  22.9324807  43.0282016  19.0508987  21.7445413
  43.2481720  18.4715944  22.2246669  43.2816583   5.4117316  24.4195264
  43.9242492   5.4815421  25.0057179  43.5339604   4.7446539  23.9174806
  43.4138716   5.3243665  24.4322543  30.2092937   9.8824586  13.0004588
  29.4951114   9.5962765  13.4127021  30.6936905  10.2221211  13.6410976
  30.1752300   9.8906235  13.1560223  31.0533796   8.6217879  29.0319838
  30.3605593   8.1514859  29.2780569  31.6694123   8.3956184  29.6061545
  31.0418326   8.5185011  29.1528991  46.4963447  15.0884408  21.0685473
  47.1579881  14.5275077  20.9681382  45.8554859  14.5936439  21.3938164
  46.4992314  14.9320817  21.1017813  37.3840254  18.3854540  13.3766397
  37.7991403  18.0539563  12.6850892  36.5532184  18.1523442  13.2486533
  37.3228263  18.3025796  13.2557244  26.7128603  15.8698281  23.6664574
  26.5304176  15.8445167  22.8136867  27.4478272  16.3397218  23.7053483
  26.7942667  15.9359643  23.5462493  42.7828277  16.1049791  20.8097462
  43.0183867  16.2494989  19.9824313  42.9317841  16.8692199  21.2028976
  42.8394081  16.2388845  20.7461066  44.6118734  14.9451456  18.6467066
  44.9426951  15.4779097  18.0407161  45.1851822  14.9990344  19.3029017
  44.7452413  15.0321025  18.6544848  39.8250623  12.7916359  19.3290646
  39.9197478  13.5305653  19.7830271  39.2009467  12.3633835  19.7625210
  39.7459653  12.8377680  19.4598793  26.6799514  12.7491781  23.8163641
  27.2573016  12.6128232  24.4555886  25.9813575  12.2927565  24.0709225
  26.6620535  12.6614047  23.9485931  40.0773645  14.6365099  12.5627598
  39.9953807  14.7067286  13.4282585  40.7153365  15.1994843  12.3711339
  40.1593482  14.7304070  12.6617547  33.4366816  14.4025837  22.0302124
  33.1786060  13.5697572  22.0033424  33.4915299  14.6283450  21.1894625
  33.4066594  14.3123608  21.9022261  38.5167866   6.5054288  22.1306217
  37.8124193   6.0163473  22.2890136  38.5652840   6.5176762  21.2594661
  38.4197917   6.4343936  22.0245557  32.4101528  11.9563599  22.5167019
  31.8351119  12.1155768  23.1530980  32.0337204  11.3199009  22.0535470
  32.2704340  11.8861412  22.5421577  36.0774817  10.4286949  27.3759397
  35.6889249  10.0041166  26.7211589  35.4129515  10.6769098  27.8836424
  35.9221744  10.4025670  27.3547265  45.7198086  10.1861953  20.1507227
  45.4634651   9.3741895  19.9605110  46.5627400  10.1939521  19.9237415
  45.8064111  10.0673951  20.0892045  22.1558347  11.6003674  20.5311460
  22.2418599  11.2235542  21.3124990  22.7834144  11.2264120  20.0531418
  22.2614898  11.4889156  20.5756937  39.9001178   4.1261577  24.8883382
  40.2811690   3.4439749  25.2751256  39.0964462   3.8371180  24.7059046
  39.8377640   3.9828626  24.9187438  37.1813755  14.6585553  15.5736204
  37.9954394  14.9500446  15.4618976  37.1172896  14.0045416  14.9994497
  37.2916494  14.6050748  15.4725042  33.0521663  18.1307071  20.7008517
  33.6895610  17.8918818  21.2460310  33.4776735  18.3344230  19.9661677
  33.2097829  18.1258081  20.6725674  33.6924478  13.3509360  15.0383406
  34.0769631  13.1317067  15.7899951  33.4436098  14.1772306  15.1684482
  33.7126551  13.4407507  15.1684482  33.8593019   6.6315776  34.7545990
  33.5446460   7.4015338  34.4915553  33.5382951   6.0686032  34.1698217
  33.7651938   6.6626044  34.6287340  44.4259666  17.1255998  26.0494075
  44.1205483  17.8584055  26.4107390  43.7065881  16.7193928  25.7686861
  44.2747008  17.1737731  26.0607212  35.4343135  18.6079493  22.3802303
  35.5082143  18.4454665  23.2344153  36.2512641  18.7969683  22.1362784
  35.5659494  18.6116236  22.4700328  50.1261458  13.7648999  25.3762419
  50.0585958  13.7844958  24.5065005  50.1117120  14.6079326  25.6018089
  50.1140214  13.8922734  25.2814896  29.1948892  18.9537356  19.4096746
  28.3687009  19.1999093  19.2831025  29.2560883  18.8749437  20.2758804
  29.0823059  18.9782305  19.5185691  31.4124915   5.0206297  20.3692186
  30.5447341   5.0928897  20.4349796  31.7000120   5.8228376  20.5580162
  31.3264664   5.1500444  20.4066953  40.5357804   5.1684157  28.7003508
  41.2811396   4.9793967  28.2866934  40.1195109   5.6942394  28.1417365
  40.5842778   5.2186302  28.5568081  33.9747721  21.5714236  17.1115776
  34.2646019  21.1803218  16.3875003  34.7051202  21.7530941  17.5521051
  34.1254605  21.5408050  17.0698583  47.9120075  12.5393385  23.6509013
  48.4627997  11.9061454  23.8906105  47.8964190  13.0708778  24.3424517
  47.9905271  12.5242333  23.7887871  30.8270584  15.6354935  22.4431628
  30.5383832  15.0092407  22.9777355  31.6953932  15.5775223  22.5096308
  30.9130835  15.5342480  22.5322582  41.6148481  10.7789719  22.7613609
  41.2713247  10.0580054  23.1120859  41.7141524  10.5703570  21.9191968
  41.5790524  10.6413922  22.6885289  31.0302857  17.2750186  18.3673993
  31.7848825  17.6563225  18.5809455  30.4373470  17.7261330  18.8220689
  31.0539570  17.3979014  18.4656871  42.0761510  17.2415423  18.3037598
  42.6419543  17.9008633  18.2196140  41.4289414  17.5865121  18.7754000
  42.0640267  17.3897364  18.3610354  33.4909524   9.2313027  33.4931205
  32.6809300   9.5370806  33.3821047  33.9684211   9.9518609  33.6083789
  33.4413003   9.3827628  33.4938276  29.3392268   8.4964556  17.8109063
  29.0517063   8.1265827  17.0741010  30.0262736   8.9659412  17.5492768
  29.3981165   8.5111526  17.6624138  38.5468088  20.1854207  17.7274677
  38.3054764  19.4522068  17.3201742  38.7269421  20.7341064  17.0741010
  38.5375712  20.1576598  17.5704900  33.7767409  15.4762767  19.1395599
  33.5810192  16.0837501  18.5455902  34.0001755  14.7830711  18.6587273
  33.7802050  15.4640292  18.9811680  32.1745939  12.3617505  19.2576467
  32.8968591  12.5258663  18.7980273  31.6953932  13.0827169  19.1515807
  32.2109670  12.4915734  19.1742081  40.1339447   8.6981303  24.6373152
  39.2950547   8.7242582  24.4011416  40.2043814   9.3452039  25.2178499
  40.0207840   8.7977429  24.6882269  38.5808725   5.5966680  19.3700768
  39.2835078   5.3974429  18.8920726  38.3152914   4.8242623  19.6769612
  38.6455357   5.4529647  19.3446210  44.0096971  13.9049290  21.9234394
  43.9230945  14.0604716  22.7769173  43.5547450  14.5487366  21.5493799
  43.9300227  14.0225045  21.9941501  26.9120462   9.2745769  18.6594344
  27.0136599  10.0771930  18.9875319  27.7076349   9.0733105  18.3617424
  27.0448368   9.3631668  18.6629699  33.3437281   6.8601966  28.4231649
  33.1520478   6.8757100  29.2731072  34.1935877   7.0565640  28.3998304
  33.4413003   6.8916317  28.5454944  27.7284194   9.3892947  26.4015465
  27.5869686   8.5376888  26.5259973  28.0124758   9.4321608  25.5777671
  27.7492040   9.2692697  26.2983089  37.8822787  11.2260037  20.5459954
  37.6357501  11.1455788  21.3796743  38.2107910  10.4413505  20.3522481
  37.8944030  11.0986303  20.6407477  33.8419814  13.9616756  29.9582937
  33.9863190  14.5417964  29.3226047  34.1895462  14.3393053  30.6632791
  33.9147275  14.1037460  29.9681932  36.0139731  13.1606924  27.7408068
  35.2663045  13.3537939  27.3356346  36.1681256  12.3352144  27.5032190
  35.9262159  13.0672036  27.6453474  43.2724208  17.2921650  15.0963234
  42.8931017  16.5058788  15.0892523  42.6090454  17.8408507  14.9534878
  43.1182683  17.2566474  15.0744031  36.2541508   7.0557475  28.6303472
  36.7114122   7.7881449  28.7576264  36.3297837   6.6323940  29.3890728
  36.3332478   7.1014713  28.7604548  28.4974499   7.3023295  29.7192916
  27.9616689   6.6903653  30.0353683  28.5592264   7.8771431  30.3726582
  28.4270132   7.2970222  29.8628342  36.0971116  20.8435170  18.9352060
  36.8621008  20.5744813  18.6134725  35.9949206  20.3585180  19.6522123
  36.1952612  20.7324734  18.9931888  34.1323886   9.0459579  25.4745296
  33.3419961   8.8651039  25.7962632  34.5284509   8.2686532  25.4575590
  34.0740762   8.9047040  25.5197844  38.6189777  17.8747353  10.9152010
  39.3862762  17.9347478  10.5057861  38.1721086  17.3027795  10.4308328
  38.6663204  17.7983929  10.7829720  39.5167572  16.6802009  23.2004742
  38.8412574  16.4487241  23.7018129  39.5259949  16.0723192  22.5746847
  39.4186077  16.5560934  23.1820894  36.6461716  11.5219838  29.9568795
  36.5820858  12.3829795  29.8288932  36.7858904  11.2051831  29.1564346
  36.6577187  11.6020005  29.8197008  41.5184307  19.5367141  15.4314920
  41.6004144  20.3434128  15.1076371  42.0034049  19.5563101  16.1555693
  41.6021465  19.6587804  15.4901819  35.3280810  14.2151977  24.0984998
  34.9043059  14.4156476  23.3624016  35.1525666  13.3680825  24.2109298
  35.2391691  14.1200759  24.0058688  30.6163255  14.7104029  19.5312970
  30.7727874  14.6450832  20.3868962  30.9563848  15.4852581  19.3191650
  30.6896490  14.8153227  19.6267565  37.1542400  14.0861912  18.4006334
  37.6957945  13.5832294  18.8644954  37.4688959  14.0327107  17.5895819
  37.2806797  14.0041333  18.3490146  35.3228850  19.4779264  15.6846362
  35.3921670  18.6193802  15.8239362  36.1017305  19.6951145  15.3565386
  35.4481700  19.3832128  15.6563519  38.3031669   8.9798217  28.4528634
  38.5173639   8.3409131  27.8991988  37.6865568   9.4244041  28.0236496
  38.2436999   8.9508361  28.3079065  39.7136337  21.9016965  19.8982855
  39.3216129  21.5983680  19.1805721  39.8689409  22.7386055  19.7087809
  39.6789927  21.9800802  19.7639352  27.1897517  11.8938979  19.8473738
  27.5696482  12.3123524  19.1834005  26.6152882  12.4752435  20.1542581
  27.1608842  12.0416838  19.7950478  40.4670757  10.5887282  29.3911941
  39.6547439  10.2813172  29.4725114  40.9260692  10.1086282  29.9554653
  40.4151142  10.4723774  29.4866535  39.8776012  18.4666954  19.8388885
  39.5190667  18.6381597  20.6152918  39.3914723  18.9280160  19.2816884
  39.7534709  18.5605925  19.8714155  37.6946398   2.0898153  23.4415977
  36.8239956   2.0636874  23.3949286  37.9486739   1.9175345  22.6241823
  37.6039958   2.0608296  23.3136114  34.6664377  14.1466119  12.3789120
  34.9556902  14.9231002  12.6532694  34.7536176  13.6354851  13.0803619
  34.7218634  14.1858038  12.5231618  34.7195538   4.1004381  24.8989447
  34.2034027   3.4084573  25.0241026  34.1589467   4.7675158  24.8452046
  34.5602052   4.0967639  24.9095513  36.7887772   4.6397341  26.7282300
  36.4019525   4.6646373  27.5095830  36.3020709   4.0739020  26.2756816
  36.6600281   4.5593092  26.7770203  42.7637751  11.2059996  25.3522002
  42.3365359  11.1186345  24.5970102  42.1263804  11.3137772  25.9376846
  42.6067359  11.2092656  25.3267444  36.4544914   1.5264327  29.0192560
  37.0838032   2.0624627  28.7413630  36.6230776   1.4341685  29.8706125
  36.5722708   1.5925689  29.1041088  36.2558829   6.3135521  31.2918971
  37.0832258   6.0420670  31.3477586  36.2766675   7.1096363  31.6482789
  36.3811679   6.3915276  31.3534154  30.8328318  13.4599384  24.4789232
  29.9916325  13.3603258  24.6868126  31.0418326  14.2294864  24.8303553
  30.7393011  13.5591427  24.5616547  28.3103885  11.0818921  22.3073983
  27.9160583  11.1561933  21.5324092  27.7544002  11.4676867  22.8582344
  28.1706698  11.1500696  22.2741642  39.9468832   4.0600215  21.9877862
  40.1518425   3.9922523  22.8334859  39.6195256   4.8659036  21.9199039
  39.9284080   4.1686155  22.1037517  34.6444983  11.3880783  23.7286829
  34.3408121  10.8336772  24.3297237  33.9424404  11.5672993  23.2414864
  34.4961193  11.3325566  23.7456535  33.7011080   8.6981303  18.2931531
  33.9770815   7.9800216  17.8809099  34.3009750   9.2966223  18.0852637
  33.8304345   8.6801674  18.2012293  43.2002520   4.6131979  21.4680627
  42.5876833   5.1002381  21.8534359  43.2966695   3.9375470  22.0118278
  43.1240417   4.5850288  21.6059485  37.2021601   6.3694820  16.5678126
  37.6565347   6.5405381  17.2925971  37.6761647   5.7562931  16.1675902
  37.3389921   6.3045706  16.6151888  30.7237126  15.8543146  25.8980865
  30.1325059  16.4952645  25.8683880  31.4858150  16.2780764  25.8712164
  30.7485387  16.0118985  25.8896012  31.1197749   7.0145144  26.5648882
  31.5799231   7.0884074  27.3024006  31.1653856   7.8126398  26.2148704
  31.1948304   7.1439291  26.6221639  32.7681099   7.6811839  31.1320910
  32.3766664   7.0345186  31.5676687  32.9366961   8.2723274  31.7515165
  32.7352009   7.6726107  31.2883616  46.8427548  15.6848916  26.8958143
  46.9010671  16.1335565  27.6418120  46.2094015  16.0947729  26.4588223
  46.7578843  15.8122651  26.9410691  34.5434621  13.0737355  17.6723134
  35.2876666  13.4611631  17.9106083  34.6895317  12.2294780  17.8363621
  34.6745206  13.0067828  17.7317103  36.4614196   4.8687614  22.7054995
  35.6150241   5.0410421  22.5796345  36.4585329   4.0636957  23.0420823
  36.3361346   4.7748643  22.7366122  37.5312497   8.6462828  23.5717053
  37.0572451   8.1204590  24.0822364  37.9030632   8.0992301  23.0031914
  37.5162386   8.4878825  23.5632200  27.9085527  10.6434335  28.9400599
  28.7711140  10.5430044  28.8537928  27.5777310  10.0629044  28.3786171
  27.9870723  10.5425962  28.8446005  43.7949227  13.7065204  24.9823833
  43.5547450  12.8671619  24.9866260  44.2741234  13.7865370  25.7064607
  43.8301411  13.5946603  25.0898636  39.4595996   9.5399383  16.6342807
  38.9319015   9.6228127  15.9448516  39.9191704  10.2817254  16.6307451
  39.4497847   9.6620045  16.5317502  45.7954414  10.4866661  22.9353093
  45.5564184  10.4462495  22.0973877  45.9588316  11.3337813  23.0618814
  45.7844718  10.6058746  22.8306574  42.4000444  14.8716610  28.8658138
  43.1234643  14.4189137  28.6869158  42.1350407  15.1521276  28.0830466
  42.4681718  14.8467579  28.7236853  31.2687313   9.4676784  25.6011017
  30.6440383   9.4795176  24.9936970  30.9332908   9.9436959  26.2502257
  31.1272805   9.5395301  25.6067585  39.0133079  18.1102946  15.7652464
  39.7367278  18.5761059  15.6217037  38.5733670  18.1776556  15.0150061
  39.0548771  18.1886783  15.6337245  30.5378058  11.0769932  27.8185885
  30.6971545  10.3213256  28.2237607  30.3570952  11.6260871  28.4726623
  30.5343417  11.0463745  27.9748591  38.4798361   3.2431167  28.3736675
  37.9838922   3.4394841  27.6828242  39.2367423   3.6423835  28.2025476
  38.5185186   3.3308901  28.2456812  35.7501241   6.9173513  24.9639985
  35.7743728   6.3833625  24.2752765  36.0012714   6.4090822  25.6265576
  35.7911159   6.7634417  24.9604630  23.2608831  14.2005008  24.3983129
  23.1552280  14.1551852  23.5335213  22.5109051  14.5458789  24.6797414
  23.1344433  14.2445916  24.3120459  32.0302563   5.6444331  24.3445730
  32.0700935   6.1453538  25.0580437  31.2052228   5.7354725  24.0751653
  31.9142089   5.7326148  24.4096268  34.2132176  15.2105071  32.4466024
  33.3627806  15.3476786  32.5823669  34.3760304  14.4768850  32.8913726
  34.1116039  15.1219173  32.5321623  33.4516926  12.1604841  26.6419629
  32.6208856  12.3278659  26.4354877  33.3968444  11.7840792  27.4268514
  33.3206341  12.1294572  26.7268157  31.2600710   5.6513734  32.2776039
  31.8853413   5.1075867  32.5505472  30.8051190   5.1708652  31.7083830
  31.2848970   5.5003215  32.2337633  31.8252970  10.4360433  17.1709746
  31.9655931  10.9332897  17.8738388  32.3235503   9.7346727  17.3123960
  31.9194051  10.4062411  17.2961325  31.8553193  11.3027544  14.5002323
  32.4898272  11.8987969  14.4351785  31.9378803  11.0031001  15.3148193
  31.9609744  11.3468452  14.6105410  44.8335758  13.8343021  27.3688687
  45.4253599  14.4740272  27.4006885  45.2694753  13.1366058  27.6580754
  44.9854190  13.8261371  27.4169520  33.4332175   7.2341519  14.4747765
  33.7548016   6.7544602  13.8207028  33.6959119   8.0441165  14.2838577
  33.5198201   7.2831417  14.3503257  38.8291330   6.6213713  26.8371244
  39.2546402   6.1686240  26.2254771  38.2148324   6.0673784  27.1136032
  38.8019976   6.4727689  26.7876270  28.3606180  13.4995384  17.7691869
  28.8698410  14.0959892  18.1503175  28.8340453  13.2321358  17.0868289
  28.5049556  13.5481200  17.7246392  39.2736929  22.1723651  15.9250525
  38.5566238  21.9984513  15.4597762  39.9243666  21.9376223  15.3926011
  39.2638779  22.1119444  15.7779743  37.2685553   3.0928813  20.2461821
  36.6253871   2.9426459  20.8146960  36.9284960   2.8471158  19.4810926
  37.1230631   3.0340935  20.2164836  41.8584900  11.0488240  19.6691830
  41.1876090  11.5917942  19.5404895  42.5524650  11.5183095  19.4273525
  41.8613767  11.1986511  19.6147358  42.0213027   7.5044123  22.5782203
  42.3740637   7.0773846  23.2528002  41.1627829   7.4194967  22.7083280
  41.9462472   7.4288864  22.6977214  30.7196712  10.1351643  20.6365050
  30.0008701  10.5515776  20.9037913  31.0909074  10.7005882  20.0856688
  30.6688644  10.2800924  20.5947857  40.0196293  10.7679492  26.5267045
  39.9994220  10.5862787  27.3801824  40.0675494  11.6391510  26.5026629
  40.0230934  10.8696030  26.6490340  36.4943287   9.1749643  15.9738429
  35.9008126   9.4966639  15.4222996  36.5318564   8.3290738  15.7659535
  36.4117676   9.0973971  15.8621200  43.4537087   2.6262535  23.5066516
  42.9467952   1.9191675  23.4387693  44.2504521   2.2955724  23.6367592
  43.4964326   2.4735687  23.5165511  39.3701103   9.1329147  19.4040179
  39.1414796   9.1561849  18.5618538  39.6299179   8.3086614  19.5235190
  39.3747291   9.0145227  19.2965377  33.6520332  10.9863620  29.0065280
  33.1399235  10.3784803  29.3650311  33.4799828  11.7020213  29.4739255
  33.5509969  11.0026920  29.1281503  28.4986046   9.4301196  31.6567641
  28.3288637  10.0902571  31.1115848  28.0551996   9.6407757  32.3780130
  28.4085380   9.5587178  31.6829271  32.4245866   7.6705694  20.6994375
  32.9003232   8.0322774  20.0644556  31.9234465   8.3262161  20.9794518
  32.4211225   7.8199882  20.6471116  45.6557227  17.1427462  16.4907380
  46.0390833  17.8918818  16.7205477  44.8601341  17.3893281  16.2319369
  45.5951009  17.2897156  16.4864954  37.5289402   8.9087865  31.4467535
  38.0860832   8.6801675  30.8146001  37.2050467   9.6693531  31.1702747
  37.5635812   8.9871702  31.3124032  25.3988111  12.3348061  26.9156131
  24.8514830  11.6648707  27.0336999  26.1880489  11.9677909  26.9799598
  25.4340294  12.1813048  26.9424832  35.2472519  11.9955518  32.4119542
  35.9983846  12.3107195  32.7259096  35.4395096  11.7934689  31.5853464
  35.3863933  12.0122900  32.3362938  34.4672519   9.8146894  14.0667759
  34.8471484   9.8326523  13.2818874  33.7265115  10.2600882  13.9458606
  34.4141357   9.8828668  13.9331327  42.0957809   8.1229085  19.6543338
  42.0952036   7.9677741  20.5127614  41.8913989   8.9692072  19.5984723
  42.0657587   8.2249705  19.7731277  24.1575080  11.5468869  24.0702154
  23.9796841  11.0945478  24.7957070  23.8694102  12.3495031  24.2540632
  24.0888033  11.5991427  24.2045657  39.8198661  12.8026587  23.3079545
  40.3152327  12.0849582  23.2683565  39.0098437  12.4997384  23.1934031
  39.7742555  12.6524233  23.2853270  35.2657273  16.6524400  15.4576549
  34.4568596  16.3291073  15.4109858  35.7732182  15.9457622  15.3904798
  35.2206940  16.5005716  15.4406843  25.8947550  14.0796593  21.1823913
  25.0293070  14.0682283  21.0706684  25.9946366  13.8926816  22.0295053
  25.7821717  14.0502654  21.2912858  41.8850480  15.5530274  25.9956673
  42.3105552  15.0304696  25.4427098  41.5207400  16.1511111  25.4745296
  41.8937083  15.5640501  25.8365683  38.4729080  19.2664538  22.3257831
  38.9440258  19.9804801  22.4947816  38.8089258  18.6663288  22.8617700
  38.5924195  19.2836003  22.4290207  35.3898575   4.0392009  29.2815926
  35.5226480   3.2423002  29.6096901  35.7743727   4.5658412  29.8614201
  35.4654903   3.9991926  29.4159428  38.4630930   0.9622335  25.8797019
  37.6576894   0.8520065  26.1964857  38.3337665   1.0634791  25.0226885
  38.3251063   0.9606005  25.8005059  41.9196890   7.1267827  26.4736716
  41.3359879   7.6277033  26.0614283  42.2401184   6.6197383  25.8401039
  41.8810066   7.1259662  26.3195223  34.4591690   6.0408422  16.7495391
  35.2807384   6.2106735  16.5077085  33.9961340   6.1955683  16.0261688
  34.5122852   6.0890155  16.6067035  33.0487021   4.0351184  27.5293819
  33.5931434   3.6942311  28.1198161  33.1023957   4.8936645  27.6715104
  33.1376141   4.1106443  27.6375693  28.8617580  17.7967600  24.4032627
  29.4662438  17.7563434  23.7746448  28.6544893  18.6438752  24.4336683
  28.9206477  17.9155602  24.3148744  24.0968862  16.7802218  24.2731550
  23.9993140  15.9698489  24.5821607  24.8797732  16.7594011  23.8877818
  24.1984999  16.6569308  24.2618413  55.1475003  27.7198397  18.5837741
  55.1169007  28.5743034  18.7556010  55.7456351  27.4193689  19.1423885
  55.2312161  27.8014893  18.6912543  48.3474688  26.8074048  23.3390671
  47.4912583  26.9682546  23.3899788  48.3942341  25.9366112  23.3595732
  48.2273799  26.7024850  23.3496737  42.7315827  36.3436766  19.1027903
  41.9798727  35.9652304  18.8743948  43.1801839  36.3755199  18.3546713
  42.6865494  36.2922373  18.9585405  48.1840787  36.7662135  14.5313450
  47.8492156  37.4439057  14.0957672  48.6967658  36.3767446  13.9430322
  48.2106368  36.8086713  14.3800242  47.7245078  38.7176404  20.4724562
  48.1084458  39.2863303  19.9329337  47.6604220  37.9925914  19.9930378
  47.7718506  38.6951867  20.3218424  51.1926509  28.8666092  25.9822323
  51.7382469  29.5451178  26.0416293  51.1343385  28.7253553  25.1223905
  51.2642423  28.9458093  25.8634384  52.9691577  30.2950699  16.8556051
  52.8531103  31.0458385  17.2848189  53.7647464  30.0374652  17.1052138
  53.0696167  30.3685546  16.9560142  44.8521903  34.2844722  18.1425393
  45.1737744  34.8249929  17.5386701  45.4993999  33.7141493  18.2747683
  44.9947958  34.2803897  18.0732429  46.9023611  26.2860717  18.2259780
  47.6003776  26.4648844  18.7181243  47.2175943  25.7631056  17.6030169
  47.0518948  26.2354489  18.2061790  47.0911546  32.6731162  18.2139571
  47.5305182  32.0648262  18.6594344  46.9416209  32.2938535  17.4425036
  47.1333012  32.5269633  18.1658739  44.5583189  31.2675174  25.4158397
  45.2032192  30.7747617  25.0969345  44.7984966  31.4099960  26.2424475
  44.6893774  31.2152616  25.4907930  45.0750474  21.6553113  22.3081055
  44.7453804  22.1064257  21.6384753  44.3995476  21.5769277  22.8554061
  44.9260911  21.7104249  22.2904278  50.6920883  31.0258343  15.1670341
  50.6072178  31.8819310  15.3119909  51.1805266  30.7502667  15.8352500
  50.7509780  31.1115665  15.2872422  52.2826882  17.6438636  20.5530665
  51.9680323  18.3342115  20.9851088  51.7653824  17.5883419  19.8516166
  52.1591353  17.7373525  20.5127614  51.6239316  27.6443137  16.6668076
  51.0950787  27.8602771  17.3265382  52.1464336  28.3379276  16.5869045
  51.6227769  27.7786274  16.7523675  57.0787369  33.2189442  22.0401120
  56.2485072  33.4300085  22.2034537  57.0296621  32.3926496  21.7643404
  56.9494104  33.1279048  22.0238486  43.5138924  31.5406354  15.4675544
  42.9296139  32.0456385  15.8741408  43.1109019  31.3148741  14.7272136
  43.3678228  31.5814602  15.4180569  39.0682952  37.2561115  22.2699215
  38.5850531  37.9811605  22.2458799  39.8806271  37.5537245  22.3809373
  39.1173700  37.4063469  22.2826494  47.9716138  27.7872006  13.9444464
  48.2112142  27.9949990  13.1319807  48.2931979  26.9829515  14.0533409
  48.0553296  27.6986107  13.8405017  43.2806428  19.7165402  17.7904002
  44.0352396  20.0843719  17.5521052  43.1033963  20.0904956  18.5583182
  43.3660907  19.8263590  17.8688891  56.5741327  25.8659842  25.8351542
  55.7369748  25.9362029  26.0699136  56.5429558  25.8684337  24.9625844
  56.4459610  25.8770069  25.7411090  41.6363493  22.1235721  14.4882115
  41.4539066  22.3407602  13.6623108  42.4989106  22.2374734  14.5440730
  41.7368083  22.1725619  14.3736602  47.3163212  19.1262132  17.5231139
  48.0449373  18.9478087  17.0769295  47.4058105  19.9680211  17.7338317
  47.4369874  19.2246010  17.4884657  51.2971513  30.0615519  21.4263433
  52.0529028  30.4947033  21.4652342  51.4033837  29.4120289  21.9998069
  51.4241684  30.0293003  21.5161459  54.3351684  33.8888796  22.1765836
  53.8986916  33.8925539  22.9324807  54.0014600  34.5694295  21.7445413
  54.2214304  33.9901252  22.2246669  54.2549167  20.9302624  24.4195264
  54.8975075  21.0000729  25.0057179  54.5072188  20.2631847  23.9174806
  54.3871299  20.8428973  24.4322543  41.1825520  25.4009894  13.0004588
  40.4683697  25.1148073  13.4127021  41.6669489  25.7406519  13.6410976
  41.1484883  25.4091543  13.1560223  57.4696030  30.6069716  21.0685473
  58.1312464  30.0460385  20.9681382  56.8287442  30.1121747  21.3938164
  57.4724898  30.4506125  21.1017813  48.3572838  33.9039847  13.3766397
  48.7723987  33.5724871  12.6850892  47.5264768  33.6708750  13.2486533
  48.2960847  33.8211103  13.2557244  53.7560861  31.6235098  20.8097462
  53.9916450  31.7680297  19.9824313  53.9050425  32.3877507  21.2028976
  53.8126664  31.7574153  20.7461066  55.5851318  30.4636764  18.6467066
  55.9159535  30.9964405  18.0407161  56.1584406  30.5175652  19.3029017
  55.7184997  30.5506333  18.6544848  50.7983207  28.3101667  19.3290646
  50.8930061  29.0490961  19.7830271  50.1742050  27.8819143  19.7625210
  50.7192237  28.3562988  19.4598793  51.0506228  30.1550407  12.5627598
  50.9686391  30.2252594  13.4282585  51.6885949  30.7180151  12.3711339
  51.1326066  30.2489378  12.6617547  44.4099399  29.9211145  22.0302124
  44.1518644  29.0882880  22.0033424  44.4647882  30.1468758  21.1894625
  44.3799177  29.8308916  21.9022261  49.4900449  22.0239596  22.1306217
  48.7856776  21.5348781  22.2890136  49.5385424  22.0362070  21.2594661
  49.3930501  21.9529244  22.0245557  56.6930669  25.7047261  20.1507227
  56.4367234  24.8927203  19.9605110  57.5359983  25.7124828  19.9237415
  56.7796695  25.5859259  20.0892045  50.8733762  19.6446885  24.8883382
  51.2544273  18.9625056  25.2751256  50.0697046  19.3556487  24.7059046
  50.8110223  19.5013934  24.9187438  48.1546338  30.1770861  15.5736204
  48.9686977  30.4685754  15.4618976  48.0905480  29.5230724  14.9994497
  48.2649077  30.1236056  15.4725042  44.6657062  28.8694668  15.0383406
  45.0502214  28.6502375  15.7899951  44.4168682  29.6957614  15.1684482
  44.6859134  28.9592815  15.1684482  55.3992249  32.6441306  26.0494075
  55.0938066  33.3769363  26.4107390  54.6798465  32.2379236  25.7686861
  55.2479591  32.6923039  26.0607212  61.0994041  29.2834307  25.3762419
  61.0318542  29.3030266  24.5065005  61.0849704  30.1264634  25.6018089
  61.0872798  29.4108041  25.2814896  40.1681475  34.4722664  19.4096746
  39.3419593  34.7184401  19.2831025  40.2293466  34.3934745  20.2758804
  40.0555642  34.4967613  19.5185691  42.3857499  20.5391605  20.3692186
  41.5179924  20.6114205  20.4349796  42.6732703  21.3413684  20.5580162
  42.2997247  20.6685752  20.4066953  51.5090388  20.6869464  28.7003508
  52.2543980  20.4979275  28.2866934  51.0927692  21.2127702  28.1417365
  51.5575362  20.7371610  28.5568081  44.9480304  37.0899544  17.1115776
  45.2378603  36.6988526  16.3875003  45.6783785  37.2716249  17.5521051
  45.0987188  37.0593358  17.0698583  58.8852659  28.0578693  23.6509013
  59.4360580  27.4246762  23.8906105  58.8696774  28.5894086  24.3424517
  58.9637855  28.0427641  23.7887871  42.8886220  39.0666927  20.1775926
  42.6686515  38.7764281  20.9702593  42.6680742  38.4081882  19.6493838
  42.8233814  38.9266635  20.2164835  41.8003167  31.1540243  22.4431628
  41.5116416  30.5277715  22.9777355  42.6686515  31.0960531  22.5096308
  41.8863419  31.0527787  22.5322582  52.5881065  26.2975027  22.7613609
  52.2445831  25.5765362  23.1120859  52.6874107  26.0888878  21.9191968
  52.5523108  26.1599230  22.6885289  45.0554176  40.4396317  18.9606618
  45.7078234  39.9072759  19.1897644  44.3579784  40.0864969  19.3474492
  45.0484894  40.3085840  19.0518786  42.0035440  32.7935494  18.3673993
  42.7581408  33.1748533  18.5809455  41.4106053  33.2446638  18.8220689
  42.0272154  32.9164322  18.4656871  53.0494094  32.7600731  18.3037598
  53.6152127  33.4193941  18.2196140  52.4021997  33.1050429  18.7754000
  53.0372850  32.9082672  18.3610354  40.3124851  24.0149864  17.8109063
  40.0249647  23.6451135  17.0741010  40.9995319  24.4844720  17.5492768
  40.3713748  24.0296834  17.6624138  49.5200672  35.7039515  17.7274677
  49.2787348  34.9707376  17.3201742  49.7002005  36.2526372  17.0741010
  49.5108296  35.6761906  17.5704900  44.7499993  30.9948075  19.1395599
  44.5542775  31.6022809  18.5455902  44.9734338  30.3016019  18.6587273
  44.7534634  30.9825600  18.9811680  43.1478523  27.8802813  19.2576467
  43.8701175  28.0443971  18.7980273  42.6686515  28.6012477  19.1515807
  43.1842253  28.0101042  19.1742081  51.1072030  24.2166611  24.6373152
  50.2683131  24.2427890  24.4011416  51.1776398  24.8637347  25.2178499
  50.9940424  24.3162737  24.6882269  49.5541309  21.1151988  19.3700768
  50.2567661  20.9159737  18.8920726  49.2885497  20.3427931  19.6769612
  49.6187941  20.9714954  19.3446210  54.9829554  29.4234598  21.9234394
  54.8963529  29.5790024  22.7769173  54.5280034  30.0672674  21.5493799
  54.9032811  29.5410353  21.9941501  37.8853046  24.7931077  18.6594344
  37.9869182  25.5957238  18.9875319  38.6808932  24.5918413  18.3617424
  38.0180951  24.8816976  18.6629699  48.8555370  26.7445345  20.5459954
  48.6090084  26.6641096  21.3796743  49.1840493  25.9598813  20.3522481
  48.8676614  26.6171611  20.6407477  52.7503419  33.4528705  24.3346735
  52.6117778  34.1509750  24.8395477  51.9703417  33.2977361  23.9782917
  52.6146646  33.5328871  24.3573009  54.2456792  32.8106958  15.0963234
  53.8663601  32.0244096  15.0892523  53.5823037  33.3593815  14.9534878
  54.0915267  32.7751782  15.0744031  47.2274092  22.5742783  28.6303472
  47.6846706  23.3066757  28.7576264  47.3030421  22.1509248  29.3890728
  47.3065062  22.6200021  28.7604548  51.7001418  15.7532658  22.4997315
  51.8184986  16.2109121  21.7664618  51.5263593  14.9477919  22.2133533
  51.6920589  15.7026430  22.3498249  47.0703700  36.3620477  18.9352060
  47.8353591  36.0930121  18.6134725  46.9681790  35.8770488  19.6522123
  47.1685195  36.2510042  18.9931888  45.1056470  24.5644887  25.4745296
  44.3152545  24.3836347  25.7962632  45.5017093  23.7871839  25.4575590
  45.0473346  24.4232348  25.5197844  49.5922361  33.3932661  10.9152010
  50.3595346  33.4532786  10.5057861  49.1453669  32.8213103  10.4308328
  49.6395788  33.3169237  10.7829720  50.4900156  32.1987317  23.2004742
  49.8145158  31.9672549  23.7018129  50.4992532  31.5908500  22.5746847
  50.3918661  32.0746242  23.1820894  52.4916891  35.0552449  15.4314920
  52.5736728  35.8619436  15.1076371  52.9766633  35.0748409  16.1555693
  52.5754049  35.1773112  15.4901819  46.3013394  29.7337285  24.0984998
  45.8775643  29.9341784  23.3624016  46.1258249  28.8866133  24.2109298
  46.2124275  29.6386067  24.0058688  41.5895839  30.2289337  19.5312970
  41.7460458  30.1636140  20.3868962  41.9296432  31.0037889  19.3191650
  41.6629074  30.3338535  19.6267565  48.1274983  29.6047220  18.4006334
  48.6690529  29.1017601  18.8644954  48.4421543  29.5512415  17.5895819
  48.2539381  29.5226641  18.3490146  46.2961433  34.9964572  15.6846362
  46.3654254  34.1379110  15.8239362  47.0749888  35.2136453  15.3565386
  46.4214283  34.9017436  15.6563519  49.2764253  24.4983525  28.4528634
  49.4906222  23.8594439  27.8991988  48.6598152  24.9429349  28.0236496
  49.2169582  24.4693669  28.3079065  50.6868921  37.4202273  19.8982855
  50.2948713  37.1168988  19.1805721  50.8421993  38.2571363  19.7087809
  50.6522511  37.4986110  19.7639352  38.1630100  27.4124287  19.8473738
  38.5429065  27.8308832  19.1834005  37.5885465  27.9937743  20.1542581
  38.1341425  27.5602146  19.7950478  51.4403341  26.1072590  29.3911941
  50.6280023  25.7998480  29.4725114  51.8993275  25.6271590  29.9554653
  51.3883726  25.9909082  29.4866535  50.8508596  33.9852262  19.8388885
  50.4923250  34.1566905  20.6152918  50.3647306  34.4465468  19.2816884
  50.7267292  34.0791233  19.8714155  48.6678982  17.6083461  23.4415977
  47.7972539  17.5822182  23.3949286  48.9219323  17.4360653  22.6241823
  48.5772542  17.5793604  23.3136114  45.6396961  29.6651427  12.3789120
  45.9289486  30.4416310  12.6532694  45.7268760  29.1540159  13.0803619
  45.6951217  29.7043346  12.5231618  45.6928122  19.6189689  24.8989447
  45.1766611  18.9269880  25.0241026  45.1322051  20.2860466  24.8452046
  45.5334635  19.6152947  24.9095513  47.7620355  20.1582649  26.7282300
  47.3752109  20.1831680  27.5095830  47.2753293  19.5924328  26.2756816
  47.6332864  20.0778400  26.7770203  53.7370335  26.7245304  25.3522002
  53.3097943  26.6371653  24.5970102  53.0996388  26.8323079  25.9376846
  53.5799942  26.7277964  25.3267444  47.4277497  17.0449635  29.0192560
  48.0570615  17.5809935  28.7413630  47.5963360  16.9526993  29.8706125
  47.5455292  17.1110997  29.1041088  47.2291412  21.8320829  31.2918971
  48.0564841  21.5605978  31.3477586  47.2499258  22.6281671  31.6482789
  47.3544262  21.9100583  31.3534154  50.9201416  19.5785523  21.9877862
  51.1251009  19.5107831  22.8334859  50.5927840  20.3844344  21.9199039
  50.9016664  19.6871463  22.1037517  45.6177567  26.9066091  23.7286829
  45.3140704  26.3522079  24.3297237  44.9156988  27.0858301  23.2414864
  45.4693777  26.8510874  23.7456535  44.6743664  24.2166611  18.2931531
  44.9503398  23.4985524  17.8809099  45.2742333  24.8151531  18.0852637
  44.8036929  24.1986982  18.2012293  54.1735103  20.1317287  21.4680627
  53.5609417  20.6187689  21.8534359  54.2699278  19.4560778  22.0118278
  54.0973001  20.1035596  21.6059485  48.1754184  21.8880128  16.5678126
  48.6297931  22.0590689  17.2925971  48.6494230  21.2748239  16.1675902
  48.3122505  21.8231014  16.6151888  57.8160131  31.2034224  26.8958143
  57.8743255  31.6520873  27.6418120  57.1826599  31.6133037  26.4588223
  57.7311426  31.3307959  26.9410691  51.4559226  36.8237766  23.3312889
  51.2578915  37.3128580  22.6369101  50.8346937  37.0279007  23.9097023
  51.3346790  36.9254304  23.3136113  45.5167204  28.5922663  17.6723134
  46.2609249  28.9796939  17.9106083  45.6627901  27.7480088  17.8363621
  45.6477789  28.5253136  17.7317103  47.4346780  20.3872922  22.7054995
  46.5882825  20.5595729  22.5796345  47.4317912  19.5822265  23.0420823
  47.3093930  20.2933951  22.7366122  48.5045080  24.1648136  23.5717053
  48.0305034  23.6389898  24.0822364  48.8763216  23.6177609  23.0031914
  48.4894969  24.0064133  23.5632200  54.7681811  29.2250512  24.9823833
  54.5280034  28.3856927  24.9866260  55.2473818  29.3050678  25.7064607
  54.8033994  29.1131911  25.0898636  50.4328580  25.0584691  16.6342807
  49.9051599  25.1413435  15.9448516  50.8924288  25.8002562  16.6307451
  50.4230430  25.1805353  16.5317502  56.7686998  26.0051969  22.9353093
  56.5296768  25.9647803  22.0973877  56.9320899  26.8523121  23.0618814
  56.7577301  26.1244054  22.8306574  53.3733028  30.3901918  28.8658138
  54.0967227  29.9374445  28.6869158  53.1082990  30.6706584  28.0830466
  53.4414301  30.3652887  28.7236853  42.4261645  23.3287210  11.6583702
  42.0774449  23.9806935  12.1215251  41.9458091  23.3144323  10.9307573
  42.3031889  23.4230264  11.6194793  49.9865662  33.6288254  15.7652464
  50.7099861  34.0946367  15.6217037  49.5466253  33.6961864  15.0150061
  50.0281355  33.7072091  15.6337245  48.3948115  31.5590066  24.7497451
  47.9675723  30.9339785  24.3162887  48.3873059  31.2764988  25.5756459
  48.3307256  31.4242847  24.8077279  49.4530945  18.7616475  28.3736675
  48.9571506  18.9580149  27.6828242  50.2100007  19.1609143  28.2025476
  49.4917769  18.8494209  28.2456812  46.7233824  22.4358821  24.9639985
  46.7476311  21.9018933  24.2752765  46.9745298  21.9276130  25.6265576
  46.7643743  22.2819725  24.9604630  42.7985554  25.9545741  17.1709746
  42.9388515  26.4518205  17.8738388  43.2968087  25.2532035  17.3123960
  42.8926635  25.9247719  17.2961325  42.8285776  26.8212852  14.5002323
  43.4630856  27.4173277  14.4351785  42.9111387  26.5216309  15.3148193
  42.9342327  26.8653760  14.6105410  55.8068342  29.3528329  27.3688687
  56.3986182  29.9925580  27.4006885  56.2427336  28.6551366  27.6580754
  55.9586773  29.3446679  27.4169520  44.4064759  22.7526827  14.4747765
  44.7280600  22.2729910  13.8207028  44.6691703  23.5626473  14.2838577
  44.4930784  22.8016725  14.3503257  49.8023914  22.1399021  26.8371244
  50.2278986  21.6871547  26.2254771  49.1880907  21.5859092  27.1136032
  49.7752559  21.9912997  26.7876270  39.3338764  29.0180692  17.7691869
  39.8430993  29.6145200  18.1503175  39.8073036  28.7506666  17.0868289
  39.4782140  29.0666508  17.7246392  50.2469512  37.6908959  15.9250525
  49.5298822  37.5169821  15.4597762  50.8976250  37.4561531  15.3926011
  50.2371363  37.6304752  15.7779743  48.2418137  18.6114121  20.2461821
  47.5986455  18.4611767  20.8146960  47.9017544  18.3656466  19.4810926
  48.0963214  18.5526243  20.2164836  52.8317483  26.5673548  19.6691830
  52.1608673  27.1103250  19.5404895  53.5257234  27.0368403  19.4273525
  52.8346351  26.7171819  19.6147358  52.9945611  23.0229431  22.5782203
  53.3473221  22.5959154  23.2528002  52.1360412  22.9380275  22.7083280
  52.9195055  22.9474172  22.6977214  41.6929296  25.6536951  20.6365050
  40.9741285  26.0701084  20.9037913  42.0641658  26.2191190  20.0856688
  41.6421228  25.7986232  20.5947857  50.9928877  26.2864800  26.5267045
  50.9726804  26.1048095  27.3801824  51.0408077  27.1576818  26.5026629
  50.9963518  26.3881338  26.6490340  47.4675870  24.6934951  15.9738429
  46.8740709  25.0151947  15.4222996  47.5051148  23.8476046  15.7659535
  47.3850259  24.6159279  15.8621200  54.4269671  18.1447843  23.5066516
  53.9200536  17.4376983  23.4387693  55.2237105  17.8141032  23.6367592
  54.4696910  17.9920994  23.5165511  50.3433687  24.6514455  19.4040179
  50.1147380  24.6747157  18.5618538  50.6031763  23.8271922  19.5235190
  50.3479875  24.5330535  19.2965377  43.3978449  23.1891002  20.6994375
  43.8735815  23.5508081  20.0644556  42.8967049  23.8447469  20.9794518
  43.3943808  23.3385190  20.6471116  56.6289811  32.6612770  16.4907380
  57.0123417  33.4104126  16.7205477  55.8333924  32.9078589  16.2319369
  56.5683593  32.8082464  16.4864954  45.4405102  25.3332201  14.0667759
  45.8204067  25.3511831  13.2818874  44.6997698  25.7786190  13.9458606
  45.3873940  25.4013976  13.9331327  53.0690393  23.6414393  19.6543338
  53.0684619  23.4863049  20.5127614  52.8646573  24.4877380  19.5984723
  53.0390171  23.7435013  19.7731277  50.7931245  28.3211894  23.3079545
  51.2884910  27.6034889  23.2683565  49.9831021  28.0182692  23.1934031
  50.7475138  28.1709541  23.2853270  46.2389856  32.1709708  15.4576549
  45.4301179  31.8476381  15.4109858  46.7464765  31.4642930  15.3904798
  46.1939523  32.0191024  15.4406843  52.8583064  31.0715582  25.9956673
  53.2838135  30.5490004  25.4427098  52.4939984  31.6696419  25.4745296
  52.8669666  31.0825809  25.8365683  49.4461663  34.7849846  22.3257831
  49.9172841  35.4990109  22.4947816  49.7821842  34.1848596  22.8617700
  49.5656778  34.8021310  22.4290207  46.3631158  19.5577317  29.2815926
  46.4959064  18.7608310  29.6096901  46.7476311  20.0843720  29.8614201
  46.4387487  19.5177233  29.4159428  49.4363513  16.4807643  25.8797019
  48.6309477  16.3705373  26.1964857  49.3070249  16.5820099  25.0226885
  49.2983646  16.4791313  25.8005059  52.8929474  22.6453135  26.4736716
  52.3092463  23.1462341  26.0614283  53.2133768  22.1382691  25.8401039
  52.8542649  22.6444970  26.3195223  45.4324273  21.5593730  16.7495391
  46.2539967  21.7292043  16.5077085  44.9693924  21.7140991  16.0261688
  45.4855435  21.6075463  16.6067035  66.1207586  43.2383705  18.5837741
  66.0901591  44.0928341  18.7556010  66.7188935  42.9378997  19.1423885
  66.2044744  43.3200201  18.6912543  59.3207271  42.3259356  23.3390671
  58.4645167  42.4867854  23.3899788  59.3674925  41.4551420  23.3595732
  59.2006383  42.2210158  23.3496737  53.7048411  51.8622074  19.1027903
  52.9531310  51.4837612  18.8743948  54.1534423  51.8940507  18.3546713
  53.6598078  51.8107681  18.9585405  62.6300988  48.5945881  32.9451128
  63.3367755  48.0997912  33.0738062  62.8188923  49.0354963  32.2153786
  62.7628893  48.5864232  32.8560173  59.1573371  52.2847443  14.5313450
  58.8224739  52.9624365  14.0957672  59.6700241  51.8952754  13.9430322
  59.1838952  52.3272021  14.3800242  58.6977662  54.2361712  20.4724562
  59.0817041  54.8048610  19.9329337  58.6336803  53.5111222  19.9930378
  58.7451089  54.2137175  20.3218424  62.1659092  44.3851400  25.9822323
  62.7115052  45.0636486  26.0416293  62.1075968  44.2438861  25.1223905
  62.2375006  44.4643401  25.8634384  55.2833167  51.8740466  21.3690675
  55.3843530  51.0640820  21.6787803  54.6874912  51.7797412  20.7390354
  55.2105706  51.7405494  21.3216914  63.9424161  45.8136007  16.8556051
  63.8263687  46.5643693  17.2848189  64.7380047  45.5559960  17.1052138
  64.0428750  45.8870854  16.9560142  55.1233907  56.7918055  22.7705532
  55.7671362  57.2331219  23.1601690  55.4490162  55.9871481  22.6835790
  55.2665735  56.7383250  22.8151009  55.8254486  49.8030030  18.1425393
  56.1470327  50.3435237  17.5386701  56.4726583  49.2326801  18.2747683
  55.9680541  49.7989205  18.0732429  57.8756194  41.8046025  18.2259780
  58.5736359  41.9834152  18.7181243  58.1908527  41.2816364  17.6030169
  58.0251532  41.7539797  18.2061790  58.0644130  48.1916470  18.2139571
  58.5037765  47.5833570  18.6594344  57.9148793  47.8123843  17.4425036
  58.1065595  48.0454941  18.1658739  55.5315773  46.7860482  25.4158397
  56.1764775  46.2932925  25.0969345  55.7717550  46.9285268  26.2424475
  55.6626358  46.7337924  25.4907930  58.0701864  49.6315387  25.0665289
  58.3525107  48.8366793  24.8452045  58.7988025  50.1095975  25.0870350
  58.2191428  49.5849984  25.0368305  56.0483058  37.1738421  22.3081055
  55.7186388  37.6249565  21.6384753  55.3728060  37.0954585  22.8554061
  55.8993494  37.2289557  22.2904278  61.6653466  46.5443651  15.1670341
  61.5804761  47.4004618  15.3119909  62.1537850  46.2687975  15.8352500
  61.7242364  46.6300972  15.2872422  63.2559466  33.1623944  20.5530665
  62.9412907  33.8527423  20.9851088  62.7386407  33.1068727  19.8516166
  63.1323936  33.2558833  20.5127614  62.5971900  43.1628445  16.6668076
  62.0683371  43.3788079  17.3265382  63.1196919  43.8564584  16.5869045
  62.5960353  43.2971582  16.7523675  68.0519952  48.7374750  22.0401120
  67.2217656  48.9485393  22.2034537  68.0029205  47.9111804  21.7643404
  67.9226688  48.6464356  22.0238486  54.4871507  47.0591662  15.4675544
  53.9028723  47.5641693  15.8741408  54.0841603  46.8334049  14.7272136
  54.3410811  47.0999910  15.4180569  50.0415536  52.7746423  22.2699215
  49.5583114  53.4996913  22.2458799  50.8538854  53.0722553  22.3809373
  50.0906284  52.9248777  22.2826494  56.1129690  51.5678604  24.8749030
  55.5956632  51.2086019  24.2710338  56.8104081  51.0440778  24.8855096
  56.1395271  51.4376292  24.7879288  59.7693282  52.0173418  30.8365203
  59.8576628  51.8299558  31.6843413  60.1982995  51.3710847  30.4370050
  59.8455384  51.8936426  30.9036954  57.3363742  51.3004578  29.8182865
  56.7734577  50.8877188  30.3422526  58.0984765  51.2257484  30.2376008
  57.3658190  51.2281978  29.9575865  58.9448722  43.3057314  13.9444464
  59.1844725  43.5135298  13.1319807  59.2664563  42.5014823  14.0533409
  59.0285880  43.2171415  13.8405017  54.2539012  35.2350710  17.7904002
  55.0084980  35.6029027  17.5521052  54.0766547  35.6090264  18.5583182
  54.3393490  35.3448898  17.8688891  52.8959733  53.2902599  22.4219495
  53.5980313  52.7754588  22.4792252  52.8157216  53.6176750  23.2266370
  52.9883494  53.2616825  22.5492287  67.5473911  41.3845150  25.8351542
  66.7102332  41.4547337  26.0699136  67.5162142  41.3869645  24.9625844
  67.4192193  41.3955377  25.7411090  52.6096077  37.6421029  14.4882115
  52.4271650  37.8592910  13.6623108  53.4721690  37.7560042  14.5440730
  52.7100666  37.6910927  14.3736602  52.2210509  49.4808951  21.9305103
  53.0599408  49.7131884  21.9778865  52.2522278  48.6113262  21.8612139
  52.3492226  49.3865897  21.9269748  52.8463212  49.9009826  26.2318409
  53.3861437  49.7580957  26.9021781  52.1633158  50.3006577  26.6002435
  52.8255366  49.9389497  26.3852830  58.2895796  34.6447440  17.5231139
  59.0181956  34.4663394  17.0769295  58.3790689  35.4865519  17.7338317
  58.4102458  34.7431318  17.4884657  62.2704097  45.5800827  21.4263433
  63.0261612  46.0132341  21.4652342  62.3766421  44.9305597  21.9998069
  62.3974267  45.5478311  21.5161459  65.3084268  49.4074104  22.1765836
  64.8719500  49.4110847  22.9324807  64.9747183  50.0879603  21.7445413
  65.1946888  49.5086560  22.2246669  59.8813341  51.4482437  33.5008986
  60.6653758  51.5613285  33.8664728  59.6809936  50.6223574  33.6967672
  59.9679367  51.3429156  33.5843372  65.2281751  36.4487932  24.4195264
  65.8707659  36.5186037  25.0057179  65.4804771  35.7817155  23.9174806
  65.3603883  36.3614281  24.4322543  52.1558104  40.9195201  13.0004588
  51.4416281  40.6333381  13.4127021  52.6402072  41.2591827  13.6410976
  52.1217467  40.9276851  13.1560223  60.0383735  53.3592539  27.1475442
  59.2398980  53.1192039  27.4049311  60.4869746  53.4106932  27.8942490
  59.9858346  53.3314930  27.2960366  68.4428614  46.1255024  21.0685473
  69.1045048  45.5645692  20.9681382  67.8020026  45.6307055  21.3938164
  68.4457481  45.9691433  21.1017813  59.3305422  49.4225155  13.3766397
  59.7456570  49.0910179  12.6850892  58.4997351  49.1894058  13.2486533
  59.2693430  49.3396411  13.2557244  64.7293445  47.1420406  20.8097462
  64.9649034  47.2865605  19.9824313  64.8783008  47.9062814  21.2028976
  64.7859248  47.2759461  20.7461066  66.5583901  45.9822072  18.6467066
  66.8892118  46.5149712  18.0407161  67.1316989  46.0360960  19.3029017
  66.6917580  46.0691641  18.6544848  59.0984471  47.1052984  35.0395630
  58.3057452  47.4196496  35.2248250  59.2133399  47.3204452  34.2016415
  58.9979882  47.1836821  34.9433965  61.7715790  43.8286975  19.3290646
  61.8662645  44.5676269  19.7830271  61.1474634  43.4004451  19.7625210
  61.6924821  43.8748296  19.4598793  60.0268264  47.0073188  29.9780927
  60.6007126  46.3700432  30.1329491  59.9483068  47.0077270  29.1090584
  60.1001499  46.9138299  29.8727338  62.0238812  45.6735715  12.5627598
  61.9418974  45.7437902  13.4282585  62.6618532  46.2365459  12.3711339
  62.1058649  45.7674686  12.6617547  55.3831983  45.4396453  22.0302124
  55.1251227  44.6068188  22.0033424  55.4380466  45.6654066  21.1894625
  55.3531761  45.3494224  21.9022261  60.4633033  37.5424903  22.1306217
  59.7589360  37.0534089  22.2890136  60.5118007  37.5547378  21.2594661
  60.3663085  37.4714551  22.0245557  54.3566695  42.9934215  22.5167019
  53.7816286  43.1526384  23.1530980  53.9802371  42.3569624  22.0535470
  54.2169507  42.9232028  22.5421577  58.0239984  41.4657565  27.3759397
  57.6354416  41.0411782  26.7211589  57.3594682  41.7139714  27.8836424
  57.8686911  41.4396286  27.3547265  67.6663253  41.2232569  20.1507227
  67.4099818  40.4112511  19.9605110  68.5092567  41.2310136  19.9237415
  67.7529278  41.1044567  20.0892045  61.8466345  35.1632193  24.8883382
  62.2276857  34.4810364  25.2751256  61.0429630  34.8741795  24.7059046
  61.7842807  35.0199242  24.9187438  59.1278922  45.6956169  15.5736204
  59.9419561  45.9871062  15.4618976  59.0638063  45.0416031  14.9994497
  59.2381661  45.6421364  15.4725042  65.3488412  48.3782165  29.9865780
  65.1127050  47.5470230  29.8677841  65.9931641  48.3267772  30.5720624
  65.4083083  48.2479853  30.0551674  54.9986830  49.1677687  20.7008517
  55.6360777  48.9289434  21.2460310  55.4241902  49.3714845  19.9661677
  55.1562996  49.1628697  20.6725674  55.6389645  44.3879976  15.0383406
  56.0234798  44.1687683  15.7899951  55.3901266  45.2142922  15.1684482
  55.6591718  44.4778123  15.1684482  66.3724833  48.1626614  26.0494075
  66.0670650  48.8954671  26.4107390  65.6531048  47.7564544  25.7686861
  66.2212175  48.2108347  26.0607212  57.3808302  49.6450109  22.3802303
  57.4547310  49.4825281  23.2344153  58.1977809  49.8340299  22.1362784
  57.5124661  49.6486852  22.4700328  72.0726625  44.8019615  25.3762419
  72.0051125  44.8215574  24.5065005  72.0582287  45.6449942  25.6018089
  72.0605381  44.9293349  25.2814896  51.1414059  49.9907972  19.4096746
  50.3152177  50.2369709  19.2831025  51.2026050  49.9120053  20.2758804
  51.0288226  50.0152921  19.5185691  53.3590083  36.0576913  20.3692186
  52.4912508  36.1299513  20.4349796  53.6465287  36.8598992  20.5580162
  53.2729831  36.1871060  20.4066953  62.4822971  36.2054772  28.7003508
  63.2276563  36.0164583  28.2866934  62.0660276  36.7313010  28.1417365
  62.5307946  36.2556918  28.5568081  55.9212888  52.6084852  17.1115776
  56.2111186  52.2173834  16.3875003  56.6516369  52.7901557  17.5521051
  56.0719772  52.5778666  17.0698583  69.8585242  43.5764001  23.6509013
  70.4093164  42.9432070  23.8906105  69.8429358  44.1079394  24.3424517
  69.9370439  43.5612949  23.7887871  53.8618803  54.5852235  20.1775926
  53.6419099  54.2949589  20.9702593  53.6413325  53.9267190  19.6493838
  53.7966398  54.4451943  20.2164835  52.7735751  46.6725551  22.4431628
  52.4848999  46.0463022  22.9777355  53.6419099  46.6145839  22.5096308
  52.8596003  46.5713095  22.5322582  63.5613648  41.8160335  22.7613609
  63.2178414  41.0950670  23.1120859  63.6606691  41.6074186  21.9191968
  63.5255691  41.6784538  22.6885289  56.0286759  55.9581625  18.9606618
  56.6810817  55.4258067  19.1897644  55.3312368  55.6050277  19.3474492
  56.0217477  55.8271148  19.0518786  52.9768024  48.3120802  18.3673993
  53.7313992  48.6933841  18.5809455  52.3838637  48.7631946  18.8220689
  53.0004738  48.4349630  18.4656871  64.0226678  48.2786039  18.3037598
  64.5884710  48.9379249  18.2196140  63.3754581  48.6235737  18.7754000
  64.0105434  48.4267980  18.3610354  54.2966251  49.4829364  23.7414108
  53.7747004  49.6229655  24.4265973  54.6840271  48.7240028  23.9316225
  54.2769952  49.3914887  23.8715185  51.2857435  39.5335172  17.8109063
  50.9982230  39.1636443  17.0741010  51.9727903  40.0030028  17.5492768
  51.3446332  39.5482142  17.6624138  60.4933256  51.2224823  17.7274677
  60.2519932  50.4892684  17.3201742  60.6734589  51.7711680  17.0741010
  60.4840880  51.1947214  17.5704900  55.7232576  46.5133383  19.1395599
  55.5275359  47.1208117  18.5455902  55.9466922  45.8201327  18.6587273
  55.7267217  46.5010908  18.9811680  54.1211106  43.3988121  19.2576467
  54.8433758  43.5629279  18.7980273  53.6419099  44.1197785  19.1515807
  54.1574837  43.5286350  19.1742081  62.0804614  39.7351919  24.6373152
  61.2415714  39.7613198  24.4011416  62.1508981  40.3822655  25.2178499
  61.9673007  39.8348045  24.6882269  60.5273892  36.6337296  19.3700768
  61.2300245  36.4345045  18.8920726  60.2618081  35.8613239  19.6769612
  60.5920524  36.4900262  19.3446210  65.9562138  44.9419906  21.9234394
  65.8696112  45.0975332  22.7769173  65.5012618  45.5857982  21.5493799
  65.8765394  45.0595661  21.9941501  48.8585629  40.3116385  18.6594344
  48.9601766  41.1142546  18.9875319  49.6541516  40.1103721  18.3617424
  48.9913535  40.4002284  18.6629699  59.8287954  42.2630653  20.5459954
  59.5822668  42.1826404  21.3796743  60.1573077  41.4784121  20.3522481
  59.8409197  42.1356919  20.6407477  63.7236003  48.9714013  24.3346735
  63.5850362  49.6695058  24.8395477  62.9436000  48.8162669  23.9782917
  63.5879229  49.0514179  24.3573009  62.0614088  45.2710388  30.5869117
  62.0562126  44.3990204  30.5911543  62.7675082  45.4698557  30.1138572
  62.1659092  45.1714262  30.5176152  54.8612736  53.1890144  26.8243963
  55.0102300  52.6293059  26.1717368  55.6412738  53.2682145  27.2076482
  54.9986830  53.1175709  26.7840913  65.2189375  48.3292266  15.0963234
  64.8396184  47.5429404  15.0892523  64.5555621  48.8779123  14.9534878
  65.0647850  48.2937090  15.0744031  57.3866037  53.3604787  28.1028454
  57.3109708  52.6913597  28.6579243  57.3155896  54.0622575  28.6169121
  57.3646644  53.3649694  28.2605302  62.6734001  31.2717966  22.4997315
  62.7917569  31.7294429  21.7664618  62.4996177  30.4663227  22.2133533
  62.6653172  31.2211738  22.3498249  58.0436284  51.8805785  18.9352060
  58.8086175  51.6115429  18.6134725  57.9414374  51.3955796  19.6522123
  58.1417779  51.7695350  18.9931888  56.0789053  40.0830195  25.4745296
  55.2885128  39.9021655  25.7962632  56.4749676  39.3057147  25.4575590
  56.0205930  39.9417656  25.5197844  60.5654944  48.9117969  10.9152010
  61.3327929  48.9718094  10.5057861  60.1186253  48.3398411  10.4308328
  60.6128371  48.8354545  10.7829720  61.4632740  47.7172625  23.2004742
  60.7877741  47.4857857  23.7018129  61.4725116  47.1093808  22.5746847
  61.3651244  47.5931550  23.1820894  63.4649474  50.5737757  15.4314920
  63.5469312  51.3804744  15.1076371  63.9499216  50.5933717  16.1555693
  63.5486632  50.6958420  15.4901819  57.2745978  45.2522593  24.0984998
  56.8508227  45.4527092  23.3624016  57.0990833  44.4051441  24.2109298
  57.1856858  45.1571375  24.0058688  56.7757671  56.7673106  26.5606455
  57.2653601  56.0683895  26.3782120  56.2041903  56.4696976  27.1482512
  56.7642201  56.6199330  26.6207496  52.5628422  45.7474645  19.5312970
  52.7193042  45.6821448  20.3868962  52.9029016  46.5223197  19.3191650
  52.6361657  45.8523843  19.6267565  59.1007567  45.1232528  18.4006334
  59.6423113  44.6202909  18.8644954  59.4154126  45.0697723  17.5895819
  59.2271964  45.0411949  18.3490146  62.9724674  49.3335176  35.5133246
  63.7859540  49.0620325  35.6738378  62.8119641  49.0342716  34.7093442
  63.0694623  49.2490102  35.4178652  57.2694017  50.5149880  15.6846362
  57.3386837  49.6564418  15.8239362  58.0482472  50.7321761  15.3565386
  57.3946867  50.4202744  15.6563519  60.2496836  40.0168833  28.4528634
  60.4638806  39.3779747  27.8991988  59.6330736  40.4614657  28.0236496
  60.1902166  39.9878976  28.3079065  61.6601504  52.9387581  19.8982855
  61.2681296  52.6354296  19.1805721  61.8154577  53.7756671  19.7087809
  61.6255094  53.0171418  19.7639352  49.1362684  42.9309595  19.8473738
  49.5161649  43.3494140  19.1834005  48.5618049  43.5123051  20.1542581
  49.1074009  43.0787454  19.7950478  62.4135924  41.6257898  29.3911941
  61.6012606  41.3183788  29.4725114  62.8725859  41.1456898  29.9554653
  62.3616309  41.5094390  29.4866535  61.8241179  49.5037570  19.8388885
  61.4655834  49.6752213  20.6152918  61.3379890  49.9650776  19.2816884
  61.6999876  49.5976541  19.8714155  59.6411565  33.1268768  23.4415977
  58.7705123  33.1007490  23.3949286  59.8951906  32.9545961  22.6241823
  59.5505125  33.0978912  23.3136114  56.6129545  45.1836735  12.3789120
  56.9022069  45.9601618  12.6532694  56.7001343  44.6725467  13.0803619
  56.6683801  45.2228654  12.5231618  56.6660706  35.1374997  24.8989447
  56.1499194  34.4455188  25.0241026  56.1054634  35.8045774  24.8452046
  56.5067219  35.1338255  24.9095513  58.7352939  35.6767957  26.7282300
  58.3484692  35.7016988  27.5095830  58.2485876  35.1109636  26.2756816
  58.6065448  35.5963708  26.7770203  62.9845919  50.3941466  30.7856086
  63.6225639  49.9001662  30.4518542  62.3420010  50.3218866  30.2008313
  62.9840145  50.3100474  30.6498441  64.7102919  42.2430612  25.3522002
  64.2830527  42.1556960  24.5970102  64.0728972  42.3508387  25.9376846
  64.5532526  42.2463272  25.3267444  58.4010081  32.5634942  29.0192560
  59.0303199  33.0995242  28.7413630  58.5695944  32.4712301  29.8706125
  58.5187875  32.6296305  29.1041088  63.0400175  51.0861274  27.4261443
  63.8292553  50.7350339  27.5463525  63.2143773  51.8997663  27.1638077
  63.1820457  51.1547131  27.4049311  61.8933999  35.0970831  21.9877862
  62.0983593  35.0293139  22.8334859  61.5660423  35.9029652  21.9199039
  61.8749247  35.2056771  22.1037517  56.5910150  42.4251399  23.7286829
  56.2873288  41.8707387  24.3297237  55.8889571  42.6043609  23.2414864
  56.4426360  42.3696181  23.7456535  55.6476247  39.7351919  18.2931531
  55.9235982  39.0170831  17.8809099  56.2474917  40.3336839  18.0852637
  55.7769512  39.7172290  18.2012293  54.6528501  49.6401120  28.4358927
  54.5448856  49.6503182  29.3020985  54.8624283  50.4655900  28.2463881
  54.6678612  49.7642195  28.5363019  65.1467687  35.6502595  21.4680627
  64.5342001  36.1372997  21.8534359  65.2431862  34.9746086  22.0118278
  65.0705585  35.6220904  21.6059485  59.1486768  37.4065436  16.5678126
  59.6030515  37.5775997  17.2925971  59.6226814  36.7933547  16.1675902
  59.2855088  37.3416322  16.6151888  68.7892715  46.7219532  26.8958143
  68.8475839  47.1706181  27.6418120  68.1559183  47.1318345  26.4588223
  68.7044010  46.8493267  26.9410691  62.4291810  52.3423074  23.3312889
  62.2311498  52.8313888  22.6369101  61.8079521  52.5464315  23.9097023
  62.3079374  52.4439612  23.3136113  56.4899788  44.1107971  17.6723134
  57.2341833  44.4982247  17.9106083  56.6360484  43.2665396  17.8363621
  56.6210373  44.0438443  17.7317103  58.4079363  35.9058230  22.7054995
  57.5615408  36.0781037  22.5796345  58.4050496  35.1007573  23.0420823
  58.2826513  35.8119258  22.7366122  59.4777664  39.6833444  23.5717053
  59.0037618  39.1575206  24.0822364  59.8495800  39.1362917  23.0031914
  59.4627553  39.5249441  23.5632200  65.7414394  44.7435820  24.9823833
  65.5012617  43.9042235  24.9866260  66.2206402  44.8235986  25.7064607
  65.7766578  44.6317219  25.0898636  61.4061163  40.5769999  16.6342807
  60.8784182  40.6598743  15.9448516  61.8656872  41.3187870  16.6307451
  61.3963014  40.6990661  16.5317502  67.7419581  41.5237277  22.9353093
  67.5029351  41.4833111  22.0973877  67.9053483  42.3708429  23.0618814
  67.7309885  41.6429362  22.8306574  64.3465612  45.9087226  28.8658138
  65.0699810  45.4559753  28.6869158  64.0815574  46.1891892  28.0830466
  64.4146885  45.8838195  28.7236853  53.3994229  38.8472518  11.6583702
  53.0507033  39.4992243  12.1215251  52.9190674  38.8329631  10.9307573
  53.2764473  38.9415572  11.6194793  60.9598246  49.1473562  15.7652464
  61.6832445  49.6131675  15.6217037  60.5198837  49.2147172  15.0150061
  61.0013938  49.2257399  15.6337245  60.1284401  46.0071104  27.0153153
  59.5141394  45.4629155  27.3101788  60.6451686  45.4935341  26.5358969
  60.1140063  45.8507513  26.9877381  59.3680698  47.0775374  24.7497451
  58.9408306  46.4525093  24.3162887  59.3605643  46.7950296  25.5756459
  59.3039839  46.9428155  24.8077279  60.4263528  34.2801783  28.3736675
  59.9304090  34.4765457  27.6828242  61.1832590  34.6794451  28.2025476
  60.4650353  34.3679517  28.2456812  57.6966408  37.9544129  24.9639985
  57.7208895  37.4204241  24.2752765  57.9477882  37.4461438  25.6265576
  57.7376327  37.8005033  24.9604630  53.9767730  36.6814947  24.3445730
  54.0166102  37.1824154  25.0580437  53.1517395  36.7725341  24.0751653
  53.8607256  36.7696763  24.4096268  53.7718137  41.4731049  17.1709746
  53.9121098  41.9703513  17.8738388  54.2700670  40.7717343  17.3123960
  53.8659218  41.4433027  17.2961325  53.8018360  42.3398160  14.5002323
  54.4363439  42.9358585  14.4351785  53.8843971  42.0401617  15.3148193
  53.9074911  42.3839068  14.6105410  66.7800926  44.8713637  27.3688687
  67.3718766  45.5110888  27.4006885  67.2159920  44.1736674  27.6580754
  66.9319357  44.8631987  27.4169520  55.3797343  38.2712135  14.4747765
  55.7013184  37.7915217  13.8207028  55.6424286  39.0811781  14.2838577
  55.4663368  38.3202033  14.3503257  58.6094315  49.2931009  27.9946581
  58.1019406  49.8466856  28.4387212  58.3120962  49.3539299  27.1765356
  58.4899200  49.3837321  27.9395038  60.7756498  37.6584329  26.8371244
  61.2011569  37.2056855  26.2254771  60.1613491  37.1044400  27.1136032
  60.7485143  37.5098305  26.7876270  50.3071348  44.5366000  17.7691869
  50.8163577  45.1330508  18.1503175  50.7805620  44.2691974  17.0868289
  50.4514723  44.5851816  17.7246392  61.2202096  53.2094267  15.9250525
  60.5031405  53.0355129  15.4597762  61.8708833  52.9746839  15.3926011
  61.2103946  53.1490060  15.7779743  59.2150720  34.1299429  20.2461821
  58.5719038  33.9797075  20.8146960  58.8750127  33.8841774  19.4810926
  59.0695798  34.0711551  20.2164836  63.8050067  42.0858856  19.6691830
  63.1341257  42.6288558  19.5404895  64.4989817  42.5553711  19.4273525
  63.8078934  42.2357127  19.6147358  57.8536801  54.2255568  24.9003588
  57.6302455  53.4674397  25.2687615  57.3646644  54.2553589  24.1784028
  57.7480250  54.1177792  24.8480329  63.9678194  38.5414739  22.5782203
  64.3205804  38.1144462  23.2528002  63.1092996  38.4565583  22.7083280
  63.8927639  38.4659480  22.6977214  52.6661879  41.1722259  20.6365050
  51.9473868  41.5886391  20.9037913  53.0374242  41.7376498  20.0856688
  52.6153811  41.3171540  20.5947857  61.9661460  41.8050108  26.5267045
  61.9459387  41.6233403  27.3801824  62.0140661  42.6762126  26.5026629
  61.9696101  41.9066646  26.6490340  59.9107790  48.3937300  32.4515522
  59.8703645  47.7486977  31.8660678  60.7231108  48.3373917  32.7640934
  60.0250944  48.2896267  32.4112471  56.5015258  54.4456026  22.3540673
  56.0875656  53.7830156  21.9644514  57.1862632  54.5933884  21.8336367
  56.5413629  54.3696684  22.2197170  59.8680552  53.6046111  23.1064289
  59.4696835  53.7148381  22.3385110  59.2531771  53.8128177  23.6890849
  59.7179441  53.6519679  23.0795589  58.4408454  40.2120259  15.9738429
  57.8473293  40.5337255  15.4222996  58.4783731  39.3661354  15.7659535
  58.3582843  40.1344587  15.8621200  65.4002254  33.6633151  23.5066516
  64.8933119  32.9562291  23.4387693  66.1969688  33.3326340  23.6367592
  65.4429494  33.5106302  23.5165511  61.3166270  40.1699763  19.4040179
  61.0879963  40.1932465  18.5618538  61.5764347  39.3457230  19.5235190
  61.3212458  40.0515843  19.2965377  54.3711033  38.7076310  20.6994375
  54.8468399  39.0693389  20.0644556  53.8699632  39.3632777  20.9794518
  54.3676392  38.8570498  20.6471116  67.6022394  48.1798078  16.4907380
  67.9856000  48.9289434  16.7205477  66.8066508  48.4263897  16.2319369
  67.5416177  48.3267772  16.4864954  59.4754569  39.9458481  31.4467535
  60.0325999  39.7172290  30.8146001  59.1515634  40.7064147  31.1702747
  59.5100979  40.0242318  31.3124032  56.4137686  40.8517509  14.0667759
  56.7936651  40.8697139  13.2818874  55.6730282  41.2971498  13.9458606
  56.3606524  40.9199284  13.9331327  64.0422976  39.1599701  19.6543338
  64.0417203  39.0048357  20.5127614  63.8379157  40.0062688  19.5984723
  64.0122754  39.2620321  19.7731277  61.7663829  43.8397202  23.3079545
  62.2617494  43.1220197  23.2683565  60.9563604  43.5368000  23.1934031
  61.7207722  43.6894849  23.2853270  57.2122440  47.6895016  15.4576549
  56.4033763  47.3661689  15.4109858  57.7197349  46.9828238  15.3904798
  57.1672107  47.5376332  15.4406843  63.8315647  46.5900890  25.9956673
  64.2570719  46.0675312  25.4427098  63.4672567  47.1881727  25.4745296
  63.8402250  46.6011117  25.8365683  53.4669727  54.8865107  24.7554019
  53.7816286  55.7001496  24.7631801  53.8763141  54.5015326  25.4236178
  53.5737825  54.9493810  24.8558110  60.4194247  50.3035154  22.3257831
  60.8905425  51.0175417  22.4947816  60.7554425  49.7033904  22.8617700
  60.5389362  50.3206618  22.4290207  62.5071231  51.9136468  34.5049903
  62.6168197  51.1245028  34.8606650  62.8362128  51.8242404  33.7024241
  62.5723637  51.7842320  34.4392294  61.0568193  50.0953088  29.0885523
  60.5089139  49.4710972  28.8205589  61.5181222  50.2847360  28.3729603
  61.0435403  50.0312138  28.9435955  60.4096097  31.9992951  25.8797019
  59.6042061  31.8890680  26.1964857  60.2802832  32.1005407  25.0226885
  60.2716230  31.9976621  25.8005059  63.8662058  38.1638443  26.4736716
  63.2825046  38.6647649  26.0614283  64.1866352  37.6567999  25.8401039
  63.8275233  38.1630278  26.3195223  56.4056857  37.0779038  16.7495391
  57.2272551  37.2477350  16.5077085  55.9426508  37.2326299  16.0261688
  56.4588019  37.1260771  16.6067035  54.9952189  35.0721800  27.5293819
  55.5396602  34.7312927  28.1198161  55.0489124  35.9307261  27.6715104
  55.0841308  35.1477059  27.6375693  60.6226519  51.1004161  25.6194865
  61.4424893  50.9567127  25.8811160  60.3420597  51.7250360  26.1611302
  60.7023263  51.1714513  25.7382804  70.2939855  57.8444664  23.3390671
  69.4377750  58.0053162  23.3899788  70.3407508  56.9736728  23.3595732
  70.1738966  57.7395466  23.3496737  59.4530795  63.4146060  20.9943009
  59.2180979  62.5813713  20.8875278  59.5916436  63.6950726  20.1804210
  59.4386457  63.3329564  20.8585364  61.7520882  55.5831791  23.8927317
  61.1325914  54.9924438  23.7237332  61.6504746  56.1743226  23.2591640
  61.6458558  55.5835873  23.7732306  68.8488778  57.3231333  18.2259780
  69.5468943  57.5019460  18.7181243  69.1641110  56.8001672  17.6030169
  68.9984115  57.2725105  18.2061790  61.4790015  59.1284073  26.1370886
  61.3548712  59.7146518  26.7720705  62.1308300  58.6344268  26.4383161
  61.5563665  59.1422877  26.2756815  66.5048356  62.3045790  25.4158397
  67.1497359  61.8118233  25.0969345  66.7450133  62.4470576  26.2424475
  66.6358941  62.2523232  25.4907930  67.0215642  52.6923729  22.3081055
  66.6918972  53.1434873  21.6384753  66.3460643  52.6139893  22.8554061
  66.8726078  52.7474865  22.2904278  61.0148120  68.2931731  22.2699215
  60.5315698  69.0182221  22.2458799  61.8271438  68.5907861  22.3809373
  61.0638867  68.4434085  22.2826494  65.2271596  50.7536018  17.7904002
  65.9817564  51.1214335  17.5521052  65.0499130  51.1275572  18.5583182
  65.3126074  50.8634206  17.8688891  64.9171223  59.0463494  31.5499910
  65.0891727  58.9369389  32.3985192  65.4540581  59.6917899  31.3131103
  65.0216227  59.1255496  31.6405007  63.5828660  53.1606337  14.4882115
  63.4004233  53.3778218  13.6623108  64.4454273  53.2745349  14.5440730
  63.6833250  53.2096235  14.3736602  63.1943092  64.9994259  21.9305103
  64.0331992  65.2317192  21.9778865  63.2254861  64.1298570  21.8612139
  63.3224810  64.9051205  21.9269748  63.8195795  65.4195134  26.2318409
  64.3594020  65.2766265  26.9021781  63.1365742  65.8191885  26.6002435
  63.7987949  65.4574805  26.3852830  69.2628379  50.1632747  17.5231139
  69.9914540  49.9848702  17.0769295  69.3523272  51.0050827  17.7338317
  69.3835042  50.2616626  17.4884657  59.2232940  61.6395425  26.3852830
  58.9571356  60.8234542  26.5443821  59.2371504  61.6848581  25.5148346
  59.1857663  61.5252330  26.2806312  63.9731547  55.1773803  29.0319838
  63.2803343  54.7070783  29.2780569  64.5891874  54.9512108  29.6061545
  63.9616077  55.0740935  29.1528991  59.6326354  62.4254204  23.6664574
  59.4501927  62.4001090  22.8136867  60.3676023  62.8953142  23.7053483
  59.7140418  62.4915567  23.5462493  62.6972106  59.1439207  30.1746683
  63.4212078  59.1292238  30.6611578  62.7988242  59.8534562  29.6768651
  62.8190315  59.2463910  30.1725470  70.0717055  62.6238292  35.0395630
  69.2790036  62.9381804  35.2248250  70.1865982  62.8389760  34.2016415
  69.9712466  62.7022129  34.9433965  71.0000848  62.5258496  29.9780927
  71.5739710  61.8885740  30.1329491  70.9215652  62.5262578  29.1090584
  71.0734083  62.4323607  29.8727338  59.5997264  59.3047705  23.8163641
  60.1770767  59.1684156  24.4555886  58.9011326  58.8483489  24.0709225
  59.5818286  59.2169971  23.9485931  66.3564566  60.9581761  22.0302124
  66.0983811  60.1253496  22.0033424  66.4113049  61.1839374  21.1894625
  66.3264344  60.8679532  21.9022261  71.4365617  53.0610211  22.1306217
  70.7321943  52.5719397  22.2890136  71.4850591  53.0732686  21.2594661
  71.3395668  52.9899859  22.0245557  65.3299279  58.5119523  22.5167019
  64.7548870  58.6711692  23.1530980  64.9534955  57.8754932  22.0535470
  65.1902091  58.4417336  22.5421577  68.9972567  56.9842872  27.3759397
  68.6087000  56.5597090  26.7211589  68.3327266  57.2325022  27.8836424
  68.8419495  56.9581594  27.3547265  55.0756098  58.1559598  20.5311460
  55.1616349  57.7791466  21.3124990  55.7031895  57.7820044  20.0531418
  55.1812648  58.0445080  20.5756937  60.6632056  66.9251331  24.5842820
  60.7036201  67.1966182  23.7562600  61.2226580  67.4493239  25.0000608
  60.7515402  67.0427086  24.5234708  66.7790769  53.1871699  34.7545990
  66.4644210  53.9571262  34.4915553  66.4580702  52.6241956  34.1698217
  66.6849688  53.2181968  34.6287340  64.3322666  51.5762221  20.3692186
  63.4645092  51.6484820  20.4349796  64.6197871  52.3784300  20.5580162
  64.2462414  51.7056368  20.4066953  67.4840217  62.9287906  28.1968907
  66.9851910  63.6403674  28.2753795  68.2940441  63.2488573  28.1587069
  67.5296323  63.0814755  28.2025475  63.7468334  62.1910859  22.4431628
  63.4581583  61.5648330  22.9777355  64.6151682  62.1331147  22.5096308
  63.8328586  62.0898403  22.5322582  66.4107275  55.7868951  33.4931205
  65.6007050  56.0926730  33.3821047  66.8881961  56.5074533  33.6083789
  66.3610753  55.9383552  33.4938276  65.2698834  65.0014672  23.7414108
  64.7479588  65.1414963  24.4265973  65.6572855  64.2425336  23.9316225
  65.2502535  64.9100195  23.8715185  62.2590018  55.0520480  17.8109063
  61.9714814  54.6821751  17.0741010  62.9460486  55.5215336  17.5492768
  62.3178916  55.0667450  17.6624138  65.0943690  58.9173428  19.2576467
  65.8166342  59.0814587  18.7980273  64.6151683  59.6383093  19.1515807
  65.1307421  59.0471658  19.1742081  62.7451307  61.3231501  28.3630607
  63.2572403  61.6015754  27.7139367  62.4587649  62.0620795  28.7293420
  62.7786170  61.4733855  28.3220485  71.5006476  52.1522604  19.3700768
  72.2032829  51.9530353  18.8920726  71.2350664  51.3798547  19.6769612
  71.5653108  52.0085570  19.3446210  59.8318213  55.8301693  18.6594344
  59.9334349  56.6327854  18.9875319  60.6274100  55.6289029  18.3617424
  59.9646118  55.9187592  18.6629699  66.2635032  53.4157889  28.4231649
  66.0718229  53.4313024  29.2731072  67.1133628  53.6121564  28.3998304
  66.3610754  53.4472241  28.5454944  60.6481945  55.9448871  26.4015465
  60.5067437  55.0932812  26.5259973  60.9322508  55.9877532  25.5777671
  60.6689791  55.8248621  26.2983089  70.8020537  57.7815961  20.5459954
  70.5555252  57.7011712  21.3796743  71.1305660  56.9969429  20.3522481
  70.8141781  57.6542226  20.6407477  66.7617565  60.5172680  29.9582937
  66.9060940  61.0973888  29.3226047  67.1093213  60.8948976  30.6632791
  66.8345026  60.6593384  29.9681932  68.9337482  59.7162848  27.7408068
  68.1860796  59.9093862  27.3356346  69.0879007  58.8908068  27.5032190
  68.8459910  59.6227960  27.6453474  69.1739259  53.6113399  28.6303472
  69.6311873  54.3437373  28.7576264  69.2495588  53.1879864  29.3890728
  69.2530229  53.6570637  28.7604548  61.4172250  53.8579219  29.7192916
  60.8814440  53.2459577  30.0353683  61.4790015  54.4327355  30.3726582
  61.3467883  53.8526146  29.8628342  67.0521637  55.6015503  25.4745296
  66.2617712  55.4206963  25.7962632  67.4482260  54.8242455  25.4575590
  66.9938513  55.4602964  25.5197844  69.5659467  58.0775762  29.9568795
  69.5018608  58.9385718  29.8288932  69.7056655  57.7607755  29.1564346
  69.5774937  58.1575929  29.8197008  68.2478561  60.7707901  24.0984998
  67.8240810  60.9712400  23.3624016  68.0723416  59.9236749  24.2109298
  68.1589442  60.6756683  24.0058688  63.5361006  61.2659953  19.5312970
  63.6925625  61.2006755  20.3868962  63.8761599  62.0408505  19.3191650
  63.6094241  61.3709151  19.6267565  71.2229420  55.5354141  28.4528634
  71.4371390  54.8965055  27.8991988  70.6063319  55.9799965  28.0236496
  71.1634749  55.5064284  28.3079065  60.1095268  58.4494903  19.8473738
  60.4894232  58.8679448  19.1834005  59.5350632  59.0308359  20.1542581
  60.0806592  58.5972762  19.7950478  70.6144149  48.6454076  23.4415977
  69.7437707  48.6192797  23.3949286  70.8684490  48.4731269  22.6241823
  70.5237709  48.6164220  23.3136114  70.4822016  58.5503277  34.1740643
  70.9521647  59.1745394  34.5608518  70.5283896  57.8820253  34.7333858
  70.5589891  58.5437958  34.3140715  67.6393289  50.6560305  24.8989447
  67.1231778  49.9640496  25.0241026  67.0787218  51.3231082  24.8452046
  67.4799802  50.6523562  24.9095513  69.7085523  51.1953265  26.7282300
  69.3217276  51.2202296  27.5095830  69.2218460  50.6294944  26.2756816
  69.5798032  51.1149016  26.7770203  69.3742664  48.0820250  29.0192560
  70.0035782  48.6180550  28.7413630  69.5428527  47.9897609  29.8706125
  69.4920459  48.1481613  29.1041088  69.1756579  52.8691445  31.2918971
  70.0030009  52.5976594  31.3477586  69.1964425  53.6652287  31.6482789
  69.3009429  52.9471199  31.3534154  63.7526069  60.0155308  24.4789232
  62.9114076  59.9159182  24.6868126  63.9616077  60.7850788  24.8303553
  63.6590762  60.1147351  24.5616547  61.2301636  57.6374845  22.3073983
  60.8358334  57.7117857  21.5324092  60.6741753  58.0232791  22.8582344
  61.0904448  57.7056619  22.2741642  67.5642734  57.9436707  23.7286829
  67.2605871  57.3892695  24.3297237  66.8622155  58.1228917  23.2414864
  67.4158944  57.8881489  23.7456535  66.6208831  55.2537227  18.2931531
  66.8968565  54.5356139  17.8809099  67.2207500  55.8522147  18.0852637
  66.7502096  55.2357598  18.2012293  65.6261085  65.1586428  28.4358927
  65.5181440  65.1688490  29.3020985  65.8356866  65.9841208  28.2463881
  65.6411196  65.2827503  28.5363019  70.1219352  52.9250744  16.5678126
  70.5763098  53.0961305  17.2925971  70.5959397  52.3118855  16.1675902
  70.2587672  52.8601629  16.6151888  63.6434877  62.4099070  25.8980865
  63.0522810  63.0508568  25.8683880  64.4055901  62.8336687  25.8712164
  63.6683138  62.5674909  25.8896012  64.0395500  53.5701068  26.5648882
  64.4996981  53.6439997  27.3024006  64.0851606  54.3682322  26.2148704
  64.1146055  53.6995215  26.6221639  65.6878849  54.2367763  31.1320910
  65.2964415  53.5901110  31.5676687  65.8564712  54.8279198  31.7515165
  65.6549760  54.2282031  31.2883616  69.3811947  51.4243537  22.7054995
  68.5347992  51.5966345  22.5796345  69.3783079  50.6192881  23.0420823
  69.2559097  51.3304566  22.7366122  70.4510247  55.2018752  23.5717053
  69.9770202  54.6760514  24.0822364  70.8228383  54.6548225  23.0031914
  70.4360136  55.0434748  23.5632200  60.8283278  57.1990259  28.9400599
  61.6908891  57.0985968  28.8537928  60.4975061  56.6184968  28.3786171
  60.9068474  57.0981885  28.8446005  64.1885064  56.0232708  25.6011017
  63.5638134  56.0351100  24.9936970  63.8530658  56.4992883  26.2502257
  64.0470555  56.0951225  25.6067585  60.9010739  64.0833168  27.0414781
  60.3710664  63.3925607  27.0909756  61.1735832  64.0743353  26.2127490
  60.8635461  63.9800299  26.9262197  71.1016985  61.5256412  27.0153153
  70.4873978  60.9814463  27.3101788  71.6184270  61.0120649  26.5358969
  71.0872647  61.3692821  26.9877381  70.3413282  62.5960682  24.7497451
  69.9140890  61.9710401  24.3162887  70.3338226  62.3135604  25.5756459
  70.2772423  62.4613463  24.8077279  63.4575809  57.6325855  27.8185885
  63.6169296  56.8769180  28.2237607  63.2768702  58.1816795  28.4726623
  63.4541168  57.6019669  27.9748591  71.3996112  49.7987091  28.3736675
  70.9036673  49.9950765  27.6828242  72.1565174  50.1979759  28.2025476
  71.4382937  49.8864825  28.2456812  68.6698991  53.4729437  24.9639985
  68.6941479  52.9389549  24.2752765  68.9210465  52.9646746  25.6265576
  68.7108910  53.3190341  24.9604630  56.1806581  60.7560932  24.3983129
  56.0750030  60.7107776  23.5335213  55.4306801  61.1014712  24.6797414
  56.0542184  60.8001840  24.3120459  64.9500314  52.2000255  24.3445730
  64.9898685  52.7009462  25.0580437  64.1249978  52.2910649  24.0751653
  64.8339840  52.2882071  24.4096268  67.1329927  61.7660995  32.4466024
  66.2825557  61.9032709  32.5823669  67.2958054  61.0324773  32.8913726
  67.0313790  61.6775096  32.5321623  66.3714677  58.7160765  26.6419629
  65.5406607  58.8834583  26.4354877  66.3166194  58.3396716  27.4268514
  66.2404092  58.6850496  26.7268157  64.1798460  52.2069658  32.2776039
  64.8051164  51.6631791  32.5505472  63.7248940  51.7264575  31.7083830
  64.2046721  52.0559139  32.2337633  64.7450721  56.9916356  17.1709746
  64.8853682  57.4888821  17.8738388  65.2433254  56.2902651  17.3123960
  64.8391802  56.9618335  17.2961325  71.7489081  53.1769637  26.8371244
  72.1744153  52.7242163  26.2254771  71.1346074  52.6229708  27.1136032
  71.7217727  53.0283613  26.7876270  61.2803931  60.0551308  17.7691869
  61.7896161  60.6515816  18.1503175  61.7538203  59.7877282  17.0868289
  61.4247307  60.1037124  17.7246392  70.1883304  49.6484737  20.2461821
  69.5451622  49.4982383  20.8146960  69.8482711  49.4027082  19.4810926
  70.0428381  49.5896859  20.2164836  63.6394463  56.6907567  20.6365050
  62.9206452  57.1071699  20.9037913  64.0106825  57.2561806  20.0856688
  63.5886395  56.8356848  20.5947857  66.5718082  57.5419544  29.0065280
  66.0596985  56.9340727  29.3650311  66.3997578  58.2576137  29.4739255
  66.4707719  57.5582844  29.1281503  61.4183797  55.9857120  31.6567641
  61.2486387  56.6458494  31.1115848  60.9749747  56.1963681  32.3780130
  61.3283131  56.1143102  31.6829271  65.3443616  54.2261618  20.6994375
  65.8200983  54.5878697  20.0644556  64.8432216  54.8818085  20.9794518
  65.3408975  54.3755806  20.6471116  70.4487153  55.4643789  31.4467535
  71.0058583  55.2357598  30.8146001  70.1248218  56.2249455  31.1702747
  70.4833563  55.5427626  31.3124032  58.3185862  58.8903985  26.9156131
  57.7712581  58.2204631  27.0336999  59.1078240  58.5233833  26.9799598
  58.3538045  58.7368972  26.9424832  68.1670270  58.5511442  32.4119542
  68.9181597  58.8663119  32.7259096  68.3592846  58.3490613  31.5853464
  68.3061684  58.5678824  32.3362938  57.0772831  58.1024793  24.0702154
  56.8994592  57.6501402  24.7957070  56.7891853  58.9050954  24.2540632
  57.0085784  58.1547351  24.2045657  58.8145301  60.6352517  21.1823913
  57.9490820  60.6238207  21.0706684  58.9144117  60.4482740  22.0295053
  58.7019468  60.6058578  21.2912858  68.3096325  50.5947933  29.2815926
  68.4424231  49.7978926  29.6096901  68.6941478  51.1214336  29.8614201
  68.3852654  50.5547849  29.4159428  71.3828681  47.5178259  25.8797019
  70.5774644  47.4075988  26.1964857  71.2535416  47.6190714  25.0226885
  71.2448813  47.5161929  25.8005059  67.3789440  52.5964345  16.7495391
  68.2005135  52.7662658  16.5077085  66.9159091  52.7511606  16.0261688
  67.4320602  52.6446078  16.6067035  65.9684772  50.5907108  27.5293819
  66.5129185  50.2498235  28.1198161  66.0221708  51.4492569  27.6715104
  66.0573892  50.6662367  27.6375693  61.7815331  64.3523524  24.4032627
  62.3860188  64.3119358  23.7746448  61.5742643  65.1994676  24.4336683
  61.8404228  64.4711526  24.3148744  57.0166613  63.3358141  24.2731550
  56.9190891  62.5254413  24.5821607  57.7995483  63.3149935  23.8877818
  57.1182750  63.2125231  24.2618413  37.7869391  -0.7399946  14.0815489
  36.9884637  -0.9800446  14.3389357  38.2355403  -0.6885553  14.8282536
  37.7344003  -0.7677555  14.2300413  35.1351693  -0.7387698  15.0368501
  35.0595365  -1.4078888  15.5919289  35.0641553  -0.0369910  15.5509167
  35.1132300  -0.7342791  15.1945349  34.5243328   2.6680622  13.4946502
  35.0139258   1.9691411  13.3122167  33.9527560   2.3704492  14.0822559
  34.5127858   2.5206845  13.5547543  48.0425511   3.7452179  10.2730718
  47.1863407   3.9060677  10.3239835  48.0893165   2.8744243  10.2935779
  47.9224623   3.6402981  10.2836784  42.4266651  13.2814897   6.0367950
  41.6749551  12.9030435   5.8083995  42.8752663  13.3133331   5.2886760
  42.3816318  13.2300504   5.8925452  51.3519228  10.0138705  19.8791174
  52.0585995   9.5190735  20.0078109  51.5407163  10.4547786  19.1493832
  51.4847134  10.0057055  19.7900220  47.4195902  15.6554535   7.4064608
  47.8035282  16.2241434   6.8669384  47.3555044  14.9304045   6.9270425
  47.4669330  15.6329998   7.2558471  50.8877333   5.8044223  12.9162370
  51.4333293   6.4829310  12.9756340  50.8294209   5.6631684  12.0563951
  50.9593247   5.8836225  12.7974430  44.0051407  13.2933289   8.3030722
  44.1061770  12.4833643   8.6127850  43.4093153  13.1990235   7.6730401
  43.9323946  13.1598317   8.2556961  43.8452147  18.2110878   9.7045578
  44.4889602  18.6524042  10.0941737  44.1708402  17.4064304   9.6175837
  43.9883976  18.1576073   9.7491056  44.5472727  11.2222853   5.0765440
  44.8688568  11.7628060   4.4726748  45.1944823  10.6519624   5.2087730
  44.6898782  11.2182028   5.0072475  39.2275672   5.0291588  13.0710933
  39.1034369   5.6154033  13.7060751  39.8793957   4.5351784  13.3723208
  39.3049321   5.0430392  13.2096862  46.7862370   9.6109293   5.1479618
  47.2256006   9.0026394   5.5934391  46.6367033   9.2316666   4.3765083
  46.8283836   9.4647764   5.0998786  44.2534013   8.2053305  12.3498444
  44.8983016   7.7125748  12.0309392  44.4935790   8.3478091  13.1764522
  44.3844598   8.1530747  12.4247977  46.7920104  11.0508211  12.0005336
  47.0743347  10.2559616  11.7792092  47.5206265  11.5288798  12.0210397
  46.9409668  11.0042808  11.9708351  38.7633776  14.1939246   9.2039262
  38.2801355  14.9189736   9.1798846  39.5757095  14.4915376   9.3149420
  38.8124524  14.3441600   9.2166541  44.8347930  12.9871427  11.8089077
  44.3174872  12.6278842  11.2050385  45.5322322  12.4633602  11.8195143
  44.8613512  12.8569115  11.7219335  48.4911522  13.4366241  17.7705250
  48.5794868  13.2492382  18.6183460  48.9201235  12.7903671  17.3710096
  48.5673625  13.3129249  17.8377001  46.0581982  12.7197401  16.7522912
  45.4952817  12.3070011  17.2762573  46.8203006  12.6450307  17.1716055
  46.0876431  12.6474802  16.8915912  41.6177974  14.7095422   9.3559542
  42.3198553  14.1947411   9.4132299  41.5375457  15.0369574  10.1606417
  41.7101734  14.6809649   9.4832334  42.6656880   4.9471009  18.4839957
  42.8377384   4.8376904  19.3325238  43.2026238   5.5925415  18.2471149
  42.7701884   5.0263011  18.5745054  40.9428749  10.9001774   8.8645150
  41.7817648  11.1324707   8.9118912  40.9740518  10.0306086   8.7952185
  41.0710467  10.8058721   8.8609795  41.5681452  11.3202649  13.1658456
  42.1079677  11.1773781  13.8361828  40.8851398  11.7199400  13.5342482
  41.5473606  11.3582320  13.3192877  50.9922337   6.9993650   8.3603480
  51.7479852   7.4325164   8.3992389  51.0984661   6.3498420   8.9338116
  51.1192508   6.9671134   8.4501505  54.0302508  10.8266927   9.1105883
  53.5937740  10.8303670   9.8664854  53.6965424  11.5072426   8.6785460
  53.9165128  10.9279383   9.1586715  48.6031582  12.8675260  20.4349033
  49.3871998  12.9806108  20.8004775  48.4028176  12.0416397  20.6307719
  48.6897607  12.7621980  20.5183419  36.9718597   7.5402940  13.3192877
  36.7057012   6.7242057  13.4783867  36.9857161   7.5856096  12.4488393
  36.9343319   7.4259845  13.2146359  41.7217203   1.0781319  15.9659885
  41.0289000   0.6078298  16.2120616  42.3377531   0.8519623  16.5401592
  41.7101733   0.9748450  16.0869037  48.7601975  14.7785362  14.0815489
  47.9617221  14.5384862  14.3389357  49.2087986  14.8299755  14.8282536
  48.7076586  14.7507753  14.2300413  37.3812011   8.3261720  10.6004621
  37.1987584   8.3008606   9.7476913  38.1161680   8.7960658  10.6393530
  37.4626075   8.3923082  10.4802540  40.4457762   5.0446723  17.1086730
  41.1697735   5.0299753  17.5951625  40.5473899   5.7542078  16.6108698
  40.5675971   5.1471426  17.1065517  47.8202712   8.5245807  21.9735677
  47.0275693   8.8389319  22.1588297  47.9351639   8.7397276  21.1356462
  47.7198122   8.6029644  21.8774012  48.7486505   8.4266011  16.9120974
  49.3225366   7.7893255  17.0669538  48.6701308   8.4270093  16.0430631
  48.8219740   8.3331122  16.8067385  37.3482921   5.2055220  10.7503688
  37.9256424   5.0691671  11.3895933  36.6496983   4.7491005  11.0049272
  37.3303942   5.1177487  10.8825978  44.1050223   6.8589276   8.9642171
  43.8469468   6.0261011   8.9373471  44.1598706   7.0846889   8.1234671
  44.0750001   6.7687047   8.8362308  43.0784935   4.4127038   9.4507066
  42.5034527   4.5719207  10.0871027  42.7020612   3.7762448   8.9875516
  42.9387748   4.3424851   9.4761624  46.7458224   2.8850388  14.3099444
  46.3572657   2.4604606  13.6551635  46.0812922   3.1332537  14.8176471
  46.5905152   2.8589109  14.2887312  54.0706652   9.7974989  16.9205827
  53.8345290   8.9663053  16.8017888  54.7149881   9.7460596  17.5060671
  54.1301323   9.6672676  16.9891720  43.7205071  10.5870510   7.6348563
  44.3579018  10.3482257   8.1800357  44.1460142  10.7907669   6.9001724
  43.8781237  10.5821520   7.6065721  38.4117713  12.8258846  11.5182867
  38.4521858  13.0973697  10.6902647  38.9712237  13.3500754  11.9340655
  38.5001059  12.9434601  11.4574755  55.0943073   9.5819437  12.9834121
  54.7888890  10.3147494  13.3447437  54.3749289   9.1757367  12.7026907
  54.9430415   9.6301170  12.9947258  46.1026543  11.0642932   9.3142350
  46.1765551  10.9018104  10.1684200  46.9196049  11.2533122   9.0702831
  46.2342901  11.0679675   9.4040375  39.8632299  11.4100795   6.3436793
  39.0370417  11.6562532   6.2171072  39.9244290  11.3312876   7.2098851
  39.7506466  11.4345744   6.4525738  44.6431128  14.0277676   4.0455823
  44.9329427  13.6366657   3.3215050  45.3734609  14.2094380   4.4861098
  44.7938012  13.9971489   4.0038630  45.2325873   8.8295421  15.1308953
  44.7337567   9.5411189  15.2093842  46.0426098   9.1496088  15.0927116
  45.2781980   8.9822270  15.1365522  42.5837044  16.0045058   7.1115973
  42.3637339  15.7142413   7.9042640  42.3631566  15.3460013   6.5833885
  42.5184638  15.8644766   7.1504881  41.4953991   8.0918374   9.3771674
  41.2067240   7.4655846   9.9117402  42.3637339   8.0338662   9.4436355
  41.5814243   7.9905919   9.4662629  44.7505000  17.3774448   5.8946665
  45.4029058  16.8450890   6.1237691  44.0530608  17.0243100   6.2814539
  44.7435718  17.2463971   5.9858833  44.1592931   1.6876466  20.4271252
  43.3492707   1.9934246  20.3161094  44.6367618   2.4082048  20.5423836
  44.1096410   1.8391067  20.4278323  43.0184491  10.9022187  10.6754155
  42.4965245  11.0422479  11.3606019  43.4058511  10.1432851  10.8656272
  42.9988192  10.8107711  10.8055231  49.2151496  12.6417646   4.6614724
  48.9738172  11.9085507   4.2541789  49.3952829  13.1904503   4.0081057
  49.2059120  12.6140037   4.5044947  40.4936963   7.2239016  15.2970654
  41.0058060   7.5023269  14.6479414  40.2073306   7.9628310  15.6633467
  40.5271826   7.3741370  15.2560532  38.3967602   1.8456386  13.3355512
  38.2553094   0.9940327  13.4600020  38.6808165   1.8885047  12.5117718
  38.4175448   1.7256136  13.2323136  52.4454243  10.3906836  11.2686782
  52.3068602  11.0887882  11.7735524  51.6654241  10.2355492  10.9122963
  52.3097470  10.4707002  11.2913056  50.7832328   6.6903211  17.5209163
  50.7780367   5.8183028  17.5251590  51.4893322   6.8891380  17.0478619
  50.8877332   6.5907085  17.4516199  44.5103221   6.4180195  16.8922983
  44.6546597   6.9981403  16.2566093  44.8578870   6.7956492  17.5972838
  44.5830683   6.5600899  16.9021978  46.6823139   5.6170363  14.6748115
  45.9346453   5.8101378  14.2696393  46.8364664   4.7915583  14.4372236
  46.5945566   5.5235475  14.5793521  43.5830976  14.6082967  13.7584010
  43.7320540  14.0485883  13.1057415  44.3630978  14.6874969  14.1416529
  43.7205070  14.5368532  13.7180959  46.1084277  14.7797610  15.0368501
  46.0327948  14.1106420  15.5919289  46.0374136  15.4815398  15.5509167
  46.0864884  14.7842517  15.1945349  39.1657907  -0.2413266  16.6532962
  38.6300096  -0.8532908  16.9693730  39.2275672   0.3334870  17.3066629
  39.0953540  -0.2466338  16.7968389  46.7654524  13.2998609   5.8692107
  47.5304415  13.0308252   5.5474771  46.6632614  12.8148619   6.5862170
  46.8636019  13.1888173   5.9271935  50.1850980   9.1365448  10.1344789
  49.5095982   8.9050680  10.6358176  50.1943356   8.5286631   9.5086894
  50.0869485   9.0124373  10.1160941  47.3145124   3.9783277  16.8908842
  47.2504265   4.8393234  16.7628978  47.4542312   3.6615270  16.0904393
  47.3260594   4.0583444  16.7537055  45.9964218   6.6715417  11.0325045
  45.5726467   6.8719916  10.2964063  45.8209073   5.8244264  11.1449344
  45.9075098   6.5764198  10.9398735  45.4975911  18.1865929  13.4946502
  45.9871842  17.4876719  13.3122167  44.9260144  17.8889799  14.0822559
  45.4860441  18.0392153  13.5547543  51.6942915  10.7527999  22.4473293
  52.5077780  10.4813148  22.6078425  51.5337881  10.4535539  21.6433488
  51.7912863  10.6682925  22.3518698  50.3819745  14.3580404   6.8322902
  49.9899536  14.0547120   6.1145768  50.5372817  15.1949494   6.6427856
  50.3473335  14.4364241   6.6979399  50.5459419  10.9230393   6.7728932
  50.1874074  11.0945036   7.5492965  50.0598130  11.3843599   6.2156931
  50.4218116  11.0169364   6.8054201  48.2307672   4.4510793  21.1080690
  48.7007303   5.0752909  21.4948564  48.2769553   3.7827768  21.6673905
  48.3075548   4.4445473  21.2480762  51.7064159  11.8134289  17.7196133
  52.3443879  11.3194485  17.3858589  51.0638250  11.7411690  17.1348360
  51.7058385  11.7293298  17.5838488  51.7618415  12.5054097  14.3601490
  52.5510794  12.1543162  14.4803572  51.9362013  13.3190486  14.0978124
  51.9038697  12.5739955  14.3389358  41.5011726   5.9162823  11.4129279
  40.6599732   5.8166697  11.6208173  41.7101734   6.6858303  11.7643599
  41.4076418   6.0154867  11.4956594  45.3128391   3.8444222  10.6626876
  45.0091528   3.2900211  11.2637284  44.6107811   4.0236432  10.1754911
  45.1644601   3.7889005  10.6796582  43.3746742  11.0593943  15.3698974
  43.2667097  11.0696005  16.2361032  43.5842523  11.8848723  15.1803928
  43.3896853  11.1835018  15.4703066  41.3920534   8.3106585  12.8320912
  40.8008467   8.9516084  12.8023927  42.1541557   8.7344203  12.8052211
  41.4168794   8.4682424  12.8236059  57.5110955   8.1412355  13.8298190
  57.5694079   8.5899004  14.5758166  56.8777423   8.5511168  13.3928270
  57.4262250   8.2686090  13.8750738  51.1510050  13.7615897  10.2652936
  50.9529739  14.2506712   9.5709147  50.5297761  13.9657139  10.8437069
  51.0297614  13.8632435  10.2476159  38.5768934   3.0997774  15.8740645
  39.4394547   2.9993483  15.7877975  38.2460717   2.5192483  15.3126218
  38.6554131   2.9989401  15.7786051  54.4632635   6.1628643  11.9163880
  54.2230858   5.3235058  11.9206307  54.9424642   6.2428810  12.6404654
  54.4984818   6.0510043  12.0238683  53.0683852   7.3280049  15.7998184
  53.7918051   6.8752576  15.6209204  52.8033814   7.6084715  15.0170512
  53.1365125   7.3031018  15.6576900  41.9370720   1.9240223  12.5351064
  41.3123790   1.9358615  11.9277016  41.6016315   2.4000398  13.1842304
  41.7956212   1.9958740  12.5407632  38.6496396   9.9840683  13.9754828
  38.1196320   9.2933122  14.0249803  38.9221489   9.9750868  13.1467537
  38.6121118   9.8807815  13.8602244  48.8502641   7.4263928  13.9493200
  48.2359635   6.8821978  14.2441835  49.3669926   6.9128164  13.4699016
  48.8358304   7.2700337  13.9217428  48.0898939   8.4968198  11.6837498
  47.6626547   7.8717916  11.2502934  48.0823883   8.2143120  12.5096505
  48.0258080   8.3620978  11.7417326  41.2061466   3.5333371  14.7525932
  41.3654952   2.7776695  15.1577654  41.0254359   4.0824310  15.4066670
  41.2026825   3.5027184  14.9088638  44.8815583   7.6668510  19.3806071
  44.0311214   7.8040225  19.5163716  45.0443711   6.9332289  19.8253773
  44.7799447   7.5782612  19.4661670  44.1200334   4.6168280  13.5759676
  43.2892264   4.7842098  13.3694924  44.0651851   4.2404231  14.3608561
  43.9889749   4.5858012  13.6608204  55.5019166   6.2906460  14.3028734
  56.0937006   6.9303711  14.3346932  55.9378160   5.5929497  14.5920801
  55.6537597   6.2824811  14.3509567  47.3312556  10.7123833  14.9286628
  46.8237647  11.2659679  15.3727259  47.0339202  10.7732122  14.1105403
  47.2117441  10.8030144  14.8735085  49.9420336  14.6287090   2.8590572
  49.2249646  14.4547953   2.3937809  50.5927074  14.3939663   2.3266058
  49.9322187  14.5682883   2.7119790  46.5755041  15.6448391  11.8343635
  46.3520695  14.8867220  12.2027661  46.0864884  15.6746412  11.1124075
  46.4698490  15.5370615  11.7820376  48.6326030   9.8130123  19.3855569
  48.5921885   9.1679800  18.8000725  49.4449349   9.7566740  19.6980981
  48.7469184   9.7089090  19.3452518  45.2233498  15.8648849   9.2880720
  44.8093897  15.2022979   8.8984561  45.9080872  16.0126708   8.7676414
  45.2631870  15.7889507   9.1537217  48.5898792  15.0238934  10.0404336
  48.1915075  15.1341205   9.2725157  47.9750012  15.2321001  10.6230896
  48.4397681  15.0712502  10.0135636  44.3203739   3.4427060  15.9405326
  43.8082642   2.8348243  16.2990358  44.1483235   4.1583652  16.4079302
  44.2193376   3.4590359  16.0621550  39.1669454   1.8864635  18.5907688
  38.9972044   2.5466010  18.0455895  38.7235404   2.0971196  19.3120177
  39.0768787   2.0150617  18.6169318  36.0671518   4.7911500  13.8496178
  35.5198238   4.1212146  13.9677046  36.8563896   4.4241348  13.9139645
  36.1023702   4.6376487  13.8764879  45.9155927   4.4518958  19.3459589
  46.6667254   4.7670634  19.6599143  46.1078503   4.2498128  18.5193511
  46.0547341   4.4686339  19.2702985  50.4882069   5.2590026  10.2419591
  50.9835734   4.5413021  10.2023612  49.6781845   4.9560823  10.1274078
  50.4425962   5.1087672  10.2193317  52.5533888   8.0093713  12.9296720
  52.9788959   7.4868135  12.3767145  52.1890808   8.6074551  12.4085343
  52.5620490   8.0203940  12.7705730  42.1887968  16.3057931  11.6894066
  42.5034527  17.1194319  11.6971847  42.5981381  15.9208149  12.3576225
  42.2956066  16.3686633  11.7898157  49.1412487  11.7227977   9.2597878
  49.6123665  12.4368240   9.4287863  49.4772666  11.1226728   9.7957747
  49.2607602  11.7399442   9.3630254  51.2289472  13.3329291  21.4389950
  51.3386437  12.5437851  21.7946697  51.5580368  13.2435227  20.6364288
  51.2941878  13.2035144  21.3732340  49.7786434  11.5145912  16.0225570
  49.2307380  10.8903795  15.7545636  50.2399462  11.7040184  15.3069650
  49.7653643  11.4504962  15.8776001  39.5300988  10.2531039  11.3372674
  40.1345845  10.2126873  10.7086495  39.3228300  11.1002191  11.3676730
  39.5889885  10.3719042  11.2488791  49.3444760  12.5196984  12.5534911
  50.1643134  12.3759950  12.8151207  49.0638837  13.1443183  13.0951349
  49.4241503  12.5907336  12.6722851  34.7652270   9.2365657  11.2071597
  34.6676548   8.4261928  11.5161654  35.5481140   9.2157450  10.8217865
  34.8668406   9.1132747  11.1958460  59.0158095  19.2637487  10.2730718
  58.1595991  19.4245985  10.3239835  59.0625749  18.3929551  10.2935779
  58.8957207  19.1588289  10.2836784  53.3999235  28.8000205   6.0367950
  52.6482134  28.4215743   5.8083995  53.8485246  28.8318638   5.2886760
  53.3548902  28.7485812   5.8925452  62.3251812  25.5324013  19.8791174
  63.0318579  25.0376043  20.0078109  62.5139747  25.9733094  19.1493832
  62.4579717  25.5242363  19.7900220  58.3928486  31.1739843   7.4064608
  58.7767865  31.7426742   6.8669384  58.3287627  30.4489353   6.9270425
  58.4401913  31.1515306   7.2558471  61.8609916  21.3229531  12.9162370
  62.4065876  22.0014617  12.9756340  61.8026792  21.1816992  12.0563951
  61.9325830  21.4021533  12.7974430  54.9783991  28.8118597   8.3030722
  55.0794354  28.0018951   8.6127850  54.3825736  28.7175543   7.6730401
  54.9056530  28.6783625   8.2556961  54.8184731  33.7296186   9.7045578
  55.4622186  34.1709350  10.0941737  55.1440986  32.9249612   9.6175837
  54.9616559  33.6761381   9.7491056  48.1749035  24.8338884   7.9283056
  47.9399220  24.0006536   7.8215325  48.3134676  25.1143549   7.1144257
  48.1604698  24.7522387   7.7925411  50.4739123  17.0024614  10.8267364
  49.8544154  16.4117261  10.6577378  50.3722986  17.5936049  10.1931687
  50.3676798  17.0028697  10.7072353  55.5205310  26.7408161   5.0765440
  55.8421151  27.2813368   4.4726748  56.1677407  26.1704932   5.2087730
  55.6631365  26.7367336   5.0072475  50.2008256  20.5476896  13.0710933
  50.0766953  21.1339341  13.7060751  50.8526540  20.0537092  13.3723208
  50.2781905  20.5615700  13.2096862  57.7594954  25.1294601   5.1479618
  58.1988589  24.5211701   5.5934391  57.6099617  24.7501974   4.3765083
  57.8016419  24.9833072   5.0998786  55.2266597  23.7238613  12.3498444
  55.8715599  23.2311056  12.0309392  55.4668374  23.8663399  13.1764522
  55.3577182  23.6716055  12.4247977  57.7652688  26.5693519  12.0005336
  58.0475931  25.7744924  11.7792092  58.4938848  27.0474106  12.0210397
  57.9142252  26.5228116  11.9708351  55.7433882  14.1116553   9.2421101
  55.4137212  14.5627696   8.5724800  55.0678884  14.0332716   9.7894108
  55.5944318  14.1667688   9.2244325  54.1822331  23.9969793   2.4015591
  53.5979547  24.5019825   2.8081454  53.7792426  23.7712180   1.6612183
  54.0361635  24.0378041   2.3520616  49.7366360  29.7124554   9.2039262
  49.2533938  30.4375044   9.1798846  50.5489678  30.0100684   9.3149420
  49.7857108  29.8626908   9.2166541  55.8080514  28.5056735  11.8089077
  55.2907456  28.1464150  11.2050385  56.5054905  27.9818909  11.8195143
  55.8346095  28.3754423  11.7219335  59.4644106  28.9551549  17.7705250
  59.5527452  28.7677690  18.6183460  59.8933818  28.3088979  17.3710096
  59.5406208  28.8314557  17.8377001  57.0314566  28.2382709  16.7522912
  56.4685401  27.8255319  17.2762573  57.7935589  28.1635615  17.1716055
  57.0609014  28.1660110  16.8915912  52.5910557  30.2280730   9.3559542
  53.2931136  29.7132719   9.4132299  52.5108040  30.5554882  10.1606417
  52.6834318  30.1994956   9.4832334  53.6389464  20.4656317  18.4839957
  53.8109967  20.3562212  19.3325238  54.1758821  21.1110723  18.2471149
  53.7434468  20.5448319  18.5745054  51.9161333  26.4187082   8.8645150
  52.7550232  26.6510015   8.9118912  51.9473102  25.5491394   8.7952185
  52.0443050  26.3244029   8.8609795  52.5414036  26.8387957  13.1658456
  53.0812261  26.6959088  13.8361828  51.8583982  27.2384708  13.5342482
  52.5206189  26.8767628  13.3192877  61.9654920  22.5178958   8.3603480
  62.7212436  22.9510472   8.3992389  62.0717245  21.8683728   8.9338116
  62.0925091  22.4856442   8.4501505  65.0035092  26.3452235   9.1105883
  64.5670323  26.3488978   9.8664854  64.6698007  27.0257734   8.6785460
  64.8897712  26.4464691   9.1586715  59.5764165  28.3860568  20.4349033
  60.3604582  28.4991416  20.8004775  59.3760760  27.5601705  20.6307719
  59.6630191  28.2807288  20.5183419  47.9451181  23.0588248  13.3192877
  47.6789596  22.2427365  13.4783867  47.9589745  23.1041404  12.4488393
  47.9075903  22.9445153  13.2146359  52.6949787  16.5966626  15.9659885
  52.0021584  16.1263606  16.2120616  53.3110114  16.3704931  16.5401592
  52.6834317  16.4933758  16.0869037  59.7334559  30.2970670  14.0815489
  58.9349804  30.0570170  14.3389357  60.1820570  30.3485063  14.8282536
  59.6809170  30.2693061  14.2300413  48.3544594  23.8447028  10.6004621
  48.1720168  23.8193914   9.7476913  49.0894263  24.3145965  10.6393530
  48.4358658  23.9108390  10.4802540  51.4190346  20.5632030  17.1086730
  52.1430318  20.5485061  17.5951625  51.5206483  21.2727386  16.6108698
  51.5408555  20.6656734  17.1065517  58.7935295  24.0431115  21.9735677
  58.0008276  24.3574627  22.1588297  58.9084223  24.2582584  21.1356462
  58.6930706  24.1214952  21.8774012  59.7219088  23.9451319  16.9120974
  60.2957950  23.3078563  17.0669538  59.6433892  23.9455401  16.0430631
  59.7952323  23.8516430  16.8067385  48.3215505  20.7240528  10.7503688
  48.8989007  20.5876979  11.3895933  47.6229566  20.2676312  11.0049272
  48.3036526  20.6362794  10.8825978  55.0782807  22.3774584   8.9642171
  54.8202051  21.5446319   8.9373471  55.1331290  22.6032197   8.1234671
  55.0482585  22.2872355   8.8362308  54.0517519  19.9312346   9.4507066
  53.4767110  20.0904515  10.0871027  53.6753195  19.2947756   8.9875516
  53.9120331  19.8610159   9.4761624  57.7190808  18.4035696  14.3099444
  57.3305240  17.9789913  13.6551635  57.0545506  18.6517845  14.8176471
  57.5637735  18.3774417  14.2887312  43.7974338  19.5752421   7.4651506
  43.8834590  19.1984290   8.2465036  44.4250135  19.2012867   6.9871465
  43.9030889  19.4637903   7.5096984  65.0439236  25.3160296  16.9205827
  64.8077873  24.4848361  16.8017888  65.6882465  25.2645904  17.5060671
  65.1033907  25.1857984  16.9891720  54.6937654  26.1055818   7.6348563
  55.3311601  25.8667565   8.1800357  55.1192726  26.3092977   6.9001724
  54.8513820  26.1006828   7.6065721  49.3850297  28.3444154  11.5182867
  49.4254442  28.6159005  10.6902647  49.9444821  28.8686062  11.9340655
  49.4733642  28.4619909  11.4574755  55.3340469  21.3258108   1.9723453
  55.7185622  21.1065814   2.7239998  55.0852090  22.1521053   2.1024529
  55.3542542  21.4156254   2.1024529  55.5009010  14.6064523  21.6886037
  55.1862451  15.3764085  21.4255600  55.1798942  14.0434779  21.1038264
  55.4067929  14.6374791  21.5627387  66.0675657  25.1004745  12.9834121
  65.7621474  25.8332802  13.3447437  65.3481872  24.6942675  12.7026907
  65.9162999  25.1486478  12.9947258  57.0759126  26.5828240   9.3142350
  57.1498134  26.4203412  10.1684200  57.8928632  26.7718430   9.0702831
  57.2075485  26.5864983   9.4040375  50.8364883  26.9286103   6.3436793
  50.0103000  27.1747840   6.2171072  50.8976874  26.8498184   7.2098851
  50.7239050  26.9531052   6.4525738  53.0540907  12.9955044   7.3032233
  52.1863332  13.0677644   7.3689842  53.3416111  13.7977123   7.4920208
  52.9680655  13.1249191   7.3407000  62.1773795  13.1432904  15.6343555
  62.9227387  12.9542714  15.2206980  61.7611100  13.6691142  15.0757411
  62.2258770  13.1935049  15.4908128  55.6163712  29.5462983   4.0455823
  55.9062010  29.1551965   3.3215050  56.3467193  29.7279688   4.4861098
  55.7670596  29.5156797   4.0038630  56.2058457  24.3480729  15.1308953
  55.7070151  25.0596497  15.2093842  57.0158681  24.6681396  15.0927116
  56.2514564  24.5007578  15.1365522  53.5569627  31.5230366   7.1115973
  53.3369923  31.2327721   7.9042640  53.3364149  30.8645321   6.5833885
  53.4917222  31.3830074   7.1504881  52.4686575  23.6103682   9.3771674
  52.1799823  22.9841154   9.9117402  53.3369923  23.5523970   9.4436355
  52.5546827  23.5091227   9.4662629  55.7237583  32.8959756   5.8946665
  56.3761641  32.3636198   6.1237691  55.0263192  32.5428408   6.2814539
  55.7168301  32.7649279   5.9858833  52.6718848  25.2498933   5.3014039
  53.4264816  25.6311972   5.5149502  52.0789461  25.7010077   5.7560736
  52.6955562  25.3727761   5.3996918  55.1325515  17.2061774  20.4271252
  54.3225291  17.5119553  20.3161094  55.6100202  17.9267356  20.5423836
  55.0828994  17.3576375  20.4278323  53.9917075  26.4207495  10.6754155
  53.4697828  26.5607786  11.3606019  54.3791095  25.6618159  10.8656272
  53.9720775  26.3293019  10.8055231  50.9808259  16.4713303   4.7449109
  50.6933054  16.1014574   4.0081057  51.6678727  16.9408159   4.4832814
  51.0397156  16.4860273   4.5964185  60.1884080  28.1602954   4.6614724
  59.9470755  27.4270815   4.2541789  60.3685412  28.7089811   4.0081057
  60.1791704  28.1325345   4.5044947  55.4183400  23.4511514   6.0735646
  55.2226183  24.0586248   5.4795949  55.6417746  22.7579458   5.5927320
  55.4218041  23.4389039   5.9151727  53.8161930  20.3366252   6.1916514
  54.5384582  20.5007410   5.7320320  53.3369923  21.0575917   6.0855854
  53.8525661  20.4664481   6.1082128  61.7755438  16.6730051  11.5713199
  60.9366538  16.6991329  11.3351462  61.8459805  17.3200786  12.1518546
  61.6623831  16.7726176  11.6222316  51.4669547  22.7424324  15.2970654
  51.9790644  23.0208577  14.6479414  51.1805890  23.4813618  15.6633467
  51.5004410  22.8926678  15.2560532  48.5536453  17.2494516   5.5934391
  48.6552590  18.0520677   5.9215366  49.3492340  17.0481852   5.2957471
  48.6864359  17.3380415   5.5969746  54.9853272  14.8350713  15.3571696
  54.7936469  14.8505847  16.2071119  55.8351868  15.0314387  15.3338351
  55.0828994  14.8665064  15.4794990  49.3700185  17.3641694  13.3355512
  49.2285677  16.5125635  13.4600020  49.6540749  17.4070355  12.5117718
  49.3908031  17.2441444  13.2323136  63.4186826  25.9092144  11.2686782
  63.2801186  26.6073190  11.7735524  62.6386824  25.7540800  10.9122963
  63.2830053  25.9892310  11.2913056  61.7564912  22.2088519  17.5209163
  61.7512950  21.3368336  17.5251590  62.4625905  22.4076688  17.0478619
  61.8609916  22.1092393  17.4516199  55.4835805  21.9365503  16.8922983
  55.6279181  22.5166711  16.2566093  55.8311454  22.3141800  17.5972838
  55.5563266  22.0786207  16.9021978  57.6555722  21.1355671  14.6748115
  56.9079036  21.3286686  14.2696393  57.8097248  20.3100891  14.4372236
  57.5678150  21.0420783  14.5793521  54.5563560  30.1268275  13.7584010
  54.7053124  29.5671191  13.1057415  55.3363562  30.2060276  14.1416529
  54.6937654  30.0553840  13.7180959  57.0816861  30.2982918  15.0368501
  57.0060532  29.6291728  15.5919289  57.0106720  31.0000706  15.5509167
  57.0597467  30.3027825  15.1945349  57.8957499  15.0306222  15.5643519
  58.3530113  15.7630196  15.6916311  57.9713828  14.6072687  16.3230775
  57.9748469  15.0763460  15.6944595  50.1390491  15.2772042  16.6532962
  49.6032680  14.6652400  16.9693730  50.2008255  15.8520178  17.3066629
  50.0686123  15.2718970  16.7968389  57.7387108  28.8183917   5.8692107
  58.5036999  28.5493560   5.5474771  57.6365197  28.3333927   6.5862170
  57.8368603  28.7073481   5.9271935  55.7739877  17.0208326  12.4085343
  54.9835952  16.8399786  12.7302679  56.1700500  16.2435279  12.3915637
  55.7156753  16.8795787  12.4537891  61.1583564  24.6550756  10.1344789
  60.4828565  24.4235988  10.6358176  61.1675940  24.0471939   9.5086894
  61.0602068  24.5309681  10.1160941  58.2877708  19.4968585  16.8908842
  58.2236849  20.3578542  16.7628978  58.4274895  19.1800578  16.0904393
  58.2993178  19.5768752  16.7537055  56.9696801  22.1900724  11.0325045
  56.5459051  22.3905223  10.2964063  56.7941657  21.3429572  11.1449344
  56.8807682  22.0949506  10.9398735  56.4708495  33.7051237  13.4946502
  56.9604425  33.0062027  13.3122167  55.8992727  33.4075107  14.0822559
  56.4593025  33.5577461  13.5547543  52.2579246  22.6852776   6.4653017
  52.4143866  22.6199579   7.3209009  52.5979840  23.4601328   6.2531697
  52.3312481  22.7901974   6.5607611  62.6675498  26.2713307  22.4473293
  63.4810364  25.9998456  22.6078425  62.5070465  25.9720847  21.6433488
  62.7645447  26.1868233  22.3518698  56.9644841  27.4528011   2.6186408
  57.0337661  26.5942549   2.7579409  57.7433296  27.6699892   2.2905433
  57.0897691  27.3580875   2.5903566  59.9447660  16.9546964  15.3868681
  60.1589630  16.3157878  14.8332035  59.3281560  17.3992788  14.9576543
  59.8852990  16.9257108  15.2419112  61.3552328  29.8765712   6.8322902
  60.9632120  29.5732427   6.1145768  61.5105401  30.7134802   6.6427856
  61.3205918  29.9549549   6.6979399  48.8313508  19.8687726   6.7813784
  49.2112473  20.2872271   6.1174052  48.2568873  20.4501182   7.0882628
  48.8024833  20.0165585   6.7290525  62.1086748  18.5636029  16.3251988
  61.2963430  18.2561920  16.4065161  62.5676683  18.0835029  16.8894700
  62.0567133  18.4472522  16.4206582  61.5192003  26.4415701   6.7728932
  61.1606658  26.6130344   7.5492965  61.0330714  26.9028907   6.2156931
  61.3950700  26.5354672   6.8054201  59.2040256  19.9696101  21.1080690
  59.6739887  20.5938217  21.4948564  59.2502136  19.3013076  21.6673905
  59.2808132  19.9630781  21.2480762  56.3611530  12.0753128  11.8329494
  55.8450018  11.3833320  11.9581073  55.8005458  12.7423905  11.7792093
  56.2018043  12.0716386  11.8435560  58.4303763  12.6146088  13.6622347
  58.0435516  12.6395120  14.4435877  57.9436700  12.0487767  13.2096863
  58.3016272  12.5341839  13.7110250  62.6796742  27.3319597  17.7196133
  63.3176463  26.8379793  17.3858589  62.0370834  27.2596998  17.1348360
  62.6790969  27.2478606  17.5838488  64.4053743  19.1808743  12.2862049
  63.9781351  19.0935092  11.5310148  63.7679795  19.2886519  12.8716893
  64.2483350  19.1841403  12.2607490  58.0960905   9.5013074  15.9532607
  58.7254023  10.0373374  15.6753677  58.2646767   9.4090433  16.8046172
  58.2138699   9.5674436  16.0381135  57.8974820  14.2884268  18.2259018
  58.7248249  14.0169417  18.2817633  57.9182666  15.0845110  18.5822836
  58.0227670  14.3664023  18.2874201  62.7350999  28.0239405  14.3601490
  63.5243377  27.6728470  14.4803572  62.9094597  28.8375794  14.0978124
  62.8771281  28.0925262  14.3389358  52.4744309  21.4348131  11.4129279
  51.6332316  21.3352005  11.6208173  52.6834317  22.2043611  11.7643599
  52.3809002  21.5340174  11.4956594  49.9519876  19.0567668   9.2414029
  49.5576574  19.1310680   8.4664139  49.3959993  19.4425614   9.7922391
  49.8122689  19.1249443   9.2081689  56.2860974  19.3629530  10.6626876
  55.9824112  18.8085519  11.2637284  55.5840395  19.5421740  10.1754911
  56.1377184  19.3074313  10.6796582  54.3479325  26.5779251  15.3698974
  54.2399680  26.5881313  16.2361032  54.5575107  27.4034031  15.1803928
  54.3629436  26.7020326  15.4703066  52.3653117  23.8291893  12.8320912
  51.7741051  24.4701392  12.8023927  53.1274141  24.2529511  12.8052211
  52.3901378  23.9867732  12.8236059  52.7613740  14.9893891  13.4988929
  53.2215222  15.0632821  14.2364053  52.8069847  15.7875145  13.1488751
  52.8364295  15.1188038  13.5561686  54.4097090  15.6560586  18.0660956
  54.0182655  15.0093933  18.5016734  54.5782953  16.2472021  18.6855212
  54.3768000  15.6474854  18.2223662  68.4843539  23.6597663  13.8298190
  68.5426663  24.1084312  14.5758166  67.8510006  24.0696476  13.3928270
  68.3994834  23.7871398  13.8750738  62.1242634  29.2801205  10.2652936
  61.9262322  29.7692019   9.5709147  61.5030345  29.4842446  10.8437069
  62.0030198  29.3817743  10.2476159  56.1850612  21.0486102   4.6063180
  56.9292657  21.4360378   4.8446130  56.3311308  20.2043527   4.7703668
  56.3161197  20.9816575   4.6657150  58.1030187  12.8436361   9.6395042
  57.2566232  13.0159169   9.5136392  58.1001320  12.0385704   9.9760870
  57.9777337  12.7497390   9.6706169  59.1728488  16.6211575  10.5057100
  58.6988442  16.0953337  11.0162411  59.5446624  16.0741048   9.9371961
  59.1578377  16.4627572  10.4972247  49.5501518  18.6183082  15.8740645
  50.4127131  18.5178791  15.7877975  49.2193301  18.0377791  15.3126218
  49.6286714  18.5174709  15.7786051  65.4365218  21.6813951  11.9163880
  65.1963441  20.8420366  11.9206307  65.9157226  21.7614117  12.6404654
  65.4717402  21.5695350  12.0238683  64.0416435  22.8465357  15.7998184
  64.7650634  22.3937884  15.6209204  63.7766398  23.1270023  15.0170512
  64.1097709  22.8216326  15.6576900  52.9103304  17.4425531  12.5351064
  52.2856374  17.4543923  11.9277016  52.5748899  17.9185706  13.1842304
  52.7688796  17.5144048  12.5407632  49.6228979  25.5025991  13.9754828
  49.0928904  24.8118430  14.0249803  49.8954073  25.4936176  13.1467537
  49.5853702  25.3993123  13.8602244  59.8235225  22.9449236  13.9493200
  59.2092218  22.4007286  14.2441835  60.3402510  22.4313472  13.4699016
  59.8090887  22.7885645  13.9217428  59.0631522  24.0153506  11.6837498
  58.6359130  23.3903224  11.2502934  59.0556467  23.7328427  12.5096505
  58.9990663  23.8806286  11.7417326  52.1794049  19.0518679  14.7525932
  52.3387536  18.2962003  15.1577654  51.9986943  19.6009618  15.4066670
  52.1759408  19.0212492  14.9088638  60.1214352  11.2179914  15.3076722
  59.6254913  11.4143588  14.6168288  60.8783414  11.6172582  15.1365523
  60.1601177  11.3057648  15.1796858  57.3917232  14.8922260  11.8980032
  57.4159719  14.3582372  11.2092812  57.6428705  14.3839569  12.5605623
  57.4327151  14.7383164  11.8944677  44.9024822  22.1753755  11.3323176
  44.7968271  22.1300599  10.4675260  44.1525042  22.5207536  11.6137461
  44.7760425  22.2194663  11.2460506  53.6718554  13.6193078  11.2785777
  53.7116926  14.1202285  11.9920484  52.8468219  13.7103472  11.0091700
  53.5558080  13.7074895  11.3436315  55.8548167  23.1853818  19.3806071
  55.0043797  23.3225533  19.5163716  56.0176295  22.4517597  19.8253773
  55.7532030  23.0967920  19.4661670  55.0932917  20.1353588  13.5759676
  54.2624847  20.3027406  13.3694924  55.0384435  19.7589539  14.3608561
  54.9622332  20.1043319  13.6608204  52.9016701  13.6262481  19.2116086
  53.5269404  13.0824614  19.4845518  52.4467181  13.1457399  18.6423877
  52.9264961  13.4751962  19.1677680  53.4668961  18.4109180   4.1049793
  53.6071922  18.9081644   4.8078435  53.9651494  17.7095474   4.2464007
  53.5610042  18.3811158   4.2301372  66.4751749  21.8091768  14.3028734
  67.0669590  22.4489019  14.3346932  66.9110744  21.1114805  14.5920801
  66.6270181  21.8010118  14.3509567  58.3045139  26.2309140  14.9286628
  57.7970230  26.7844987  15.3727259  58.0071785  26.2917430  14.1105403
  58.1850024  26.3215452  14.8735085  60.4707322  14.5962460  13.7711291
  60.8962393  14.1434987  13.1594818  59.8564315  14.0422531  14.0476079
  60.4435967  14.4476436  13.7216316  50.0022172  21.4744131   4.7031916
  50.5114401  22.0708639   5.0843222  50.4756444  21.2070105   4.0208336
  50.1465547  21.5229947   4.6586439  60.9152920  30.1472398   2.8590572
  60.1982229  29.9733260   2.3937809  61.5659657  29.9124970   2.3266058
  60.9054770  30.0868191   2.7119790  57.5487625  31.1633699  11.8343635
  57.3253279  30.4052528  12.2027661  57.0597468  31.1931720  11.1124075
  57.4431074  31.0555923  11.7820376  52.3612703  18.1100390   7.5705096
  51.6424692  18.5264523   7.8377960  52.7325066  18.6754629   7.0196735
  52.3104635  18.2549671   7.5287903  61.6612284  18.7428239  13.4607092
  61.6410211  18.5611534  14.3141871  61.7091485  19.6140257  13.4366676
  61.6646925  18.8444777  13.5830387  59.6058614  25.3315431  19.3855569
  59.5654469  24.6865108  18.8000725  60.4181932  25.2752048  19.6980981
  59.7201767  25.2274398  19.3452518  56.1966082  31.3834157   9.2880720
  55.7826480  30.7208287   8.8984561  56.8813456  31.5312016   8.7676414
  56.2364453  31.3074815   9.1537217  59.5631376  30.5424242  10.0404336
  59.1647659  30.6526512   9.2725157  58.9482595  30.7506308  10.6230896
  59.4130265  30.5897810  10.0135636  55.2936323  18.9612367  15.9405326
  54.7815226  18.3533550  16.2990358  55.1215819  19.6768960  16.4079302
  55.1925960  18.9775667  16.0621550  50.1402037  17.4049943  18.5907688
  49.9704628  18.0651318  18.0455895  49.6967987  17.6156504  19.3120177
  50.0501371  17.5335925  18.6169318  54.0661857  15.6454441   7.6334422
  54.5419223  16.0071521   6.9984603  53.5650456  16.3010908   7.9134565
  54.0627216  15.7948630   7.5811163  59.1705393  16.8836612  18.3807582
  59.7276823  16.6550422  17.7486047  58.8466458  17.6442278  18.1042794
  59.2051803  16.9620449  18.2464079  47.0404102  20.3096808  13.8496178
  46.4930821  19.6397454  13.9677046  47.8296480  19.9426656  13.9139645
  47.0756286  20.1561795  13.8764879  56.8888510  19.9704265  19.3459589
  57.6399837  20.2855942  19.6599143  57.0811087  19.7683436  18.5193511
  57.0279924  19.9871647  19.2702985  45.7991071  19.5217616  11.0042201
  45.6212832  19.0694225  11.7297117  45.5110094  20.3243778  11.1880679
  45.7304025  19.5740174  11.1385704  61.4614652  20.7775334  10.2419591
  61.9568318  20.0598329  10.2023612  60.6514428  20.4746131  10.1274078
  61.4158546  20.6272980  10.2193317  56.9073264  24.6273147   2.3916596
  56.0984587  24.3039820   2.3449905  57.4148173  23.9206369   2.3244844
  56.8622931  24.4754463   2.3746890  47.5363541  22.0545340   8.1163960
  46.6709061  22.0431030   8.0046731  47.6362357  21.8675563   8.9635099
  47.4237708  22.0251401   8.2252905  63.5266471  23.5279021  12.9296720
  63.9521543  23.0053443  12.3767145  63.1623391  24.1259858  12.4085343
  63.5353074  23.5389248  12.7705730  53.1620551  31.8243239  11.6894066
  53.4767110  32.6379627  11.6971847  53.5713964  31.4393457  12.3576225
  53.2688649  31.8871941  11.7898157  60.1145071  27.2413285   9.2597878
  60.5856249  27.9553548   9.4287863  60.4505249  26.6412035   9.7957747
  60.2340186  27.2584750   9.3630254  62.2022055  28.8514599  21.4389950
  62.3119021  28.0623159  21.7946697  62.5312952  28.7620535  20.6364288
  62.2674461  28.7220452  21.3732340  57.0314566  12.0140756  16.2155972
  57.1642471  11.2171749  16.5436948  57.4159718  12.5407159  16.7954248
  57.1070895  11.9740673  16.3499475  60.7519017  27.0331219  16.0225570
  60.2039963  26.4089103  15.7545636  61.2132046  27.2225491  15.3069650
  60.7386227  26.9690270  15.8776001  54.6903012  12.0099931  14.4633866
  55.2347425  11.6691058  15.0538208  54.7439948  12.8685393  14.6055151
  54.7792132  12.0855190  14.5715740  50.5033571  25.7716347  11.3372674
  51.1078429  25.7312181  10.7086495  50.2960884  26.6187499  11.3676730
  50.5622469  25.8904350  11.2488791  60.3177343  28.0382292  12.5534911
  61.1375717  27.8945258  12.8151207  60.0371421  28.6628491  13.0951349
  60.3974087  28.1092644  12.6722851  45.7384854  24.7550965  11.2071597
  45.6409132  23.9447236  11.5161654  46.5213723  24.7342758  10.8217865
  45.8400990  24.6318055  11.1958460  69.9890679  34.7822795  10.2730718
  69.1328574  34.9431293  10.3239835  70.0358332  33.9114859  10.2935779
  69.8689790  34.6773597  10.2836784  59.1481619  40.3524191   7.9283056
  58.9131803  39.5191844   7.8215325  59.2867260  40.6328857   7.1144257
  59.1337281  40.2707695   7.7925411  61.4471706  32.5209922  10.8267364
  60.8276738  31.9302569  10.6577378  61.3455570  33.1121357  10.1931687
  61.3409382  32.5214005  10.7072353  61.1740839  36.0662204  13.0710933
  61.0499536  36.6524649  13.7060751  61.8259124  35.5722399  13.3723208
  61.2514489  36.0801008  13.2096862  66.1999180  39.2423921  12.3498444
  66.8448183  38.7496364  12.0309392  66.4400957  39.3848707  13.1764522
  66.3309765  39.1901363  12.4247977  68.7385272  42.0878827  12.0005336
  69.0208514  41.2930232  11.7792092  69.4671432  42.5659414  12.0210397
  68.8874835  42.0413423  11.9708351  66.7166465  29.6301861   9.2421101
  66.3869796  30.0813004   8.5724800  66.0411467  29.5518024   9.7894108
  66.5676902  29.6852996   9.2244325  60.7098943  45.2309862   9.2039262
  60.2266522  45.9560352   9.1798846  61.5222262  45.5285992   9.3149420
  60.7589691  45.3812216   9.2166541  66.7813098  44.0242043  11.8089077
  66.2640039  43.6649458  11.2050385  67.4787489  43.5004217  11.8195143
  66.8078679  43.8939731  11.7219335  70.4376690  44.4736857  17.7705250
  70.5260035  44.2862997  18.6183460  70.8666402  43.8274287  17.3710096
  70.5138792  44.3499865  17.8377001  68.0047149  43.7568017  16.7522912
  67.4417984  43.3440627  17.2762573  68.7668173  43.6820923  17.1716055
  68.0341598  43.6845418  16.8915912  63.5643141  45.7466038   9.3559542
  64.2663720  45.2318027   9.4132299  63.4840624  46.0740190  10.1606417
  63.6566901  45.7180264   9.4832334  64.6122047  35.9841625  18.4839957
  64.7842551  35.8747520  19.3325238  65.1491405  36.6296031  18.2471149
  64.7167051  36.0633627  18.5745054  62.8893916  41.9372390   8.8645150
  63.7282816  42.1695323   8.9118912  62.9205685  41.0676702   8.7952185
  63.0175634  41.8429337   8.8609795  63.5146619  42.3573265  13.1658456
  64.0544844  42.2144396  13.8361828  62.8316565  42.7570016  13.5342482
  63.4938773  42.3952936  13.3192877  70.5496749  43.9045876  20.4349033
  71.3337165  44.0176724  20.8004775  70.3493343  43.0787013  20.6307719
  70.6362774  43.7992595  20.5183419  58.9183764  38.5773556  13.3192877
  58.6522179  37.7612673  13.4783867  58.9322328  38.6226712  12.4488393
  58.8808487  38.4630461  13.2146359  63.6682371  32.1151934  15.9659885
  62.9754167  31.6448914  16.2120616  64.2842698  31.8890239  16.5401592
  63.6566901  32.0119066  16.0869037  70.7067142  45.8155978  14.0815489
  69.9082388  45.5755478  14.3389357  71.1553154  45.8670371  14.8282536
  70.6541753  45.7878369  14.2300413  59.3277178  39.3632336  10.6004621
  59.1452751  39.3379222   9.7476913  60.0626847  39.8331273  10.6393530
  59.4091242  39.4293698  10.4802540  62.3922930  36.0817338  17.1086730
  63.1162902  36.0670369  17.5951625  62.4939066  36.7912694  16.6108698
  62.5141139  36.1842042  17.1065517  69.7667879  39.5616423  21.9735677
  68.9740860  39.8759935  22.1588297  69.8816806  39.7767891  21.1356462
  69.6663290  39.6400260  21.8774012  70.6951672  39.4636627  16.9120974
  71.2690533  38.8263871  17.0669538  70.6166476  39.4640709  16.0430631
  70.7684907  39.3701738  16.8067385  59.2948088  36.2425836  10.7503688
  59.8721591  36.1062287  11.3895933  58.5962150  35.7861620  11.0049272
  59.2769110  36.1548102  10.8825978  66.0515390  37.8959892   8.9642171
  65.7934635  37.0631627   8.9373471  66.1063873  38.1217505   8.1234671
  66.0215168  37.8057663   8.8362308  65.0250103  35.4497654   9.4507066
  64.4499694  35.6089823  10.0871027  64.6485779  34.8133063   8.9875516
  64.8852915  35.3795467   9.4761624  68.6923391  33.9221004  14.3099444
  68.3037824  33.4975221  13.6551635  68.0278090  34.1703153  14.8176471
  68.5370319  33.8959725  14.2887312  54.7706921  35.0937729   7.4651506
  54.8567173  34.7169597   8.2465036  55.3982719  34.7198175   6.9871465
  54.8763472  34.9823211   7.5096984  60.3582880  43.8629462  11.5182867
  60.3987025  44.1344313  10.6902647  60.9177404  44.3871370  11.9340655
  60.4466226  43.9805217  11.4574755  66.4741593  30.1249831  21.6886037
  66.1595034  30.8949393  21.4255600  66.1531526  29.5620087  21.1038264
  66.3800512  30.1560099  21.5627387  61.8097466  42.4471411   6.3436793
  60.9835584  42.6933148   6.2171072  61.8709458  42.3683492   7.2098851
  61.6971633  42.4716360   6.4525738  64.0273490  28.5140352   7.3032233
  63.1595916  28.5862952   7.3689842  64.3148694  29.3162431   7.4920208
  63.9413238  28.6434499   7.3407000  67.1791041  39.8666037  15.1308953
  66.6802734  40.5781805  15.2093842  67.9891265  40.1866704  15.0927116
  67.2247147  40.0192886  15.1365522  63.4419158  39.1288990   9.3771674
  63.1532407  38.5026462   9.9117402  64.3102506  39.0709278   9.4436355
  63.5279410  39.0276535   9.4662629  66.1058099  32.7247082  20.4271252
  65.2957874  33.0304861  20.3161094  66.5832785  33.4452664  20.5423836
  66.0561577  32.8761683  20.4278323  64.9649658  41.9392803  10.6754155
  64.4430412  42.0793094  11.3606019  65.3523678  41.1803467  10.8656272
  64.9453359  41.8478327  10.8055231  61.9540842  31.9898611   4.7449109
  61.6665638  31.6199882   4.0081057  62.6411310  32.4593467   4.4832814
  62.0129739  32.0045581   4.5964185  64.7894514  35.8551560   6.1916514
  65.5117166  36.0192718   5.7320320  64.3102507  36.5761224   6.0855854
  64.8258244  35.9849789   6.1082128  62.4402130  38.2609632  15.2970654
  62.9523227  38.5393885  14.6479414  62.1538473  38.9998926  15.6633467
  62.4736994  38.4111986  15.2560532  59.5269037  32.7679824   5.5934391
  59.6285173  33.5705985   5.9215366  60.3224924  32.5667160   5.2957471
  59.6596942  32.8565723   5.5969746  65.9585856  30.3536021  15.3571696
  65.7669053  30.3691155  16.2071119  66.8084452  30.5499695  15.3338351
  66.0561578  30.3850372  15.4794990  60.3432769  32.8827002  13.3355512
  60.2018261  32.0310943  13.4600020  60.6273332  32.9255663  12.5117718
  60.3640615  32.7626752  13.2323136  66.4568389  37.4550811  16.8922983
  66.6011764  38.0352019  16.2566093  66.8044037  37.8327108  17.5972838
  66.5295850  37.5971515  16.9021978  68.6288306  36.6540979  14.6748115
  67.8811620  36.8471994  14.2696393  68.7829831  35.8286199  14.4372236
  68.5410733  36.5606091  14.5793521  65.5296144  45.6453583  13.7584010
  65.6785707  45.0856499  13.1057415  66.3096146  45.7245584  14.1416529
  65.6670237  45.5739148  13.7180959  68.0549444  45.8168226  15.0368501
  67.9793115  45.1477036  15.5919289  67.9839303  46.5186014  15.5509167
  68.0330051  45.8213133  15.1945349  68.8690083  30.5491530  15.5643519
  69.3262697  31.2815504  15.6916311  68.9446412  30.1257995  16.3230775
  68.9481053  30.5948768  15.6944595  61.1123074  30.7957350  16.6532962
  60.5765264  30.1837708  16.9693730  61.1740839  31.3705486  17.3066629
  61.0418707  30.7904277  16.7968389  66.7472461  32.5393634  12.4085343
  65.9568536  32.3585094  12.7302679  67.1433084  31.7620586  12.3915637
  66.6889337  32.3981095  12.4537891  72.1316147  40.1736064  10.1344789
  71.4561149  39.9421296  10.6358176  72.1408523  39.5657247   9.5086894
  72.0334652  40.0494989  10.1160941  69.2610291  35.0153893  16.8908842
  69.1969432  35.8763849  16.7628978  69.4007479  34.6985886  16.0904393
  69.2725761  35.0954060  16.7537055  67.9429385  37.7086032  11.0325045
  67.5191634  37.9090531  10.2964063  67.7674240  36.8614880  11.1449344
  67.8540266  37.6134814  10.9398735  67.4441078  49.2236545  13.4946502
  67.9337009  48.5247335  13.3122167  66.8725311  48.9260415  14.0822559
  67.4325608  49.0762769  13.5547543  63.2311830  38.2038084   6.4653017
  63.3876449  38.1384887   7.3209009  63.5712423  38.9786636   6.2531697
  63.3045065  38.3087282   6.5607611  70.9180244  32.4732272  15.3868681
  71.1322214  31.8343186  14.8332035  70.3014143  32.9178096  14.9576543
  70.8585573  32.4442416  15.2419112  59.8046091  35.3873034   6.7813784
  60.1845056  35.8057579   6.1174052  59.2301456  35.9686490   7.0882628
  59.7757416  35.5350893   6.7290525  70.1772839  35.4881409  21.1080690
  70.6472471  36.1123525  21.4948564  70.2234720  34.8198384  21.6673905
  70.2540715  35.4816089  21.2480762  67.3344113  27.5938436  11.8329494
  66.8182602  26.9018627  11.9581073  66.7738042  28.2609213  11.7792093
  67.1750626  27.5901694  11.8435560  69.4036347  28.1331396  13.6622347
  69.0168100  28.1580428  14.4435877  68.9169284  27.5673075  13.2096863
  69.2748855  28.0527147  13.7110250  69.0693488  25.0198382  15.9532607
  69.6986606  25.5558682  15.6753677  69.2379351  24.9275740  16.8046172
  69.1871283  25.0859744  16.0381135  68.8707403  29.8069576  18.2259018
  69.6980833  29.5354725  18.2817633  68.8915249  30.6030418  18.5822836
  68.9960253  29.8849330  18.2874201  63.4476893  36.9533439  11.4129279
  62.6064900  36.8537313  11.6208173  63.6566901  37.7228919  11.7643599
  63.3541586  37.0525482  11.4956594  60.9252460  34.5752976   9.2414029
  60.5309158  34.6495988   8.4664139  60.3692577  34.9610922   9.7922391
  60.7855272  34.6434751   9.2081689  67.2593558  34.8814838  10.6626876
  66.9556695  34.3270826  11.2637284  66.5572979  35.0607048  10.1754911
  67.1109768  34.8259621  10.6796582  65.3211909  42.0964559  15.3698974
  65.2132264  42.1066621  16.2361032  65.5307690  42.9219339  15.1803928
  65.3362020  42.2205634  15.4703066  63.3385701  39.3477201  12.8320912
  62.7473634  39.9886700  12.8023927  64.1006724  39.7714819  12.8052211
  63.3633962  39.5053040  12.8236059  63.7346324  30.5079199  13.4988929
  64.1947805  30.5818129  14.2364053  63.7802430  31.3060453  13.1488751
  63.8096879  30.6373346  13.5561686  65.3829673  31.1745894  18.0660956
  64.9915239  30.5279241  18.5016734  65.5515536  31.7657329  18.6855212
  65.3500584  31.1660162  18.2223662  69.0762771  28.3621669   9.6395042
  68.2298816  28.5344476   9.5136392  69.0733903  27.5571012   9.9760870
  68.9509921  28.2682698   9.6706169  70.1461071  32.1396883  10.5057100
  69.6721026  31.6138645  11.0162411  70.5179207  31.5926356   9.9371961
  70.1310960  31.9812880  10.4972247  60.5234101  34.1368390  15.8740645
  61.3859715  34.0364099  15.7877975  60.1925884  33.5563099  15.3126218
  60.6019298  34.0360016  15.7786051  63.8835887  32.9610839  12.5351064
  63.2588958  32.9729231  11.9277016  63.5481482  33.4371014  13.1842304
  63.7421379  33.0329356  12.5407632  60.5961563  41.0211299  13.9754828
  60.0661488  40.3303738  14.0249803  60.8686656  41.0121484  13.1467537
  60.5586285  40.9178431  13.8602244  70.7967809  38.4634543  13.9493200
  70.1824802  37.9192594  14.2441835  71.3135094  37.9498780  13.4699016
  70.7823471  38.3070953  13.9217428  70.0364106  39.5338813  11.6837498
  69.6091714  38.9088532  11.2502934  70.0289050  39.2513735  12.5096505
  69.9723247  39.3991594  11.7417326  63.1526633  34.5703987  14.7525932
  63.3120120  33.8147311  15.1577654  62.9719526  35.1194926  15.4066670
  63.1491992  34.5397800  14.9088638  71.0946936  26.7365222  15.3076722
  70.5987497  26.9328896  14.6168288  71.8515998  27.1357890  15.1365523
  71.1333761  26.8242956  15.1796858  68.3649815  30.4107568  11.8980032
  68.3892303  29.8767680  11.2092812  68.6161289  29.9024877  12.5605623
  68.4059734  30.2568472  11.8944677  55.8757405  37.6939063  11.3323176
  55.7700854  37.6485907  10.4675260  55.1257625  38.0392844  11.6137461
  55.7493008  37.7379971  11.2460506  64.6451138  29.1378386  11.2785777
  64.6849509  29.6387593  11.9920484  63.8200802  29.2288780  11.0091700
  64.5290664  29.2260203  11.3436315  66.8280751  38.7039126  19.3806071
  65.9776381  38.8410841  19.5163716  66.9908878  37.9702904  19.8253773
  66.7264614  38.6153227  19.4661670  66.0665501  35.6538896  13.5759676
  65.2357431  35.8212714  13.3694924  66.0117018  35.2774847  14.3608561
  65.9354916  35.6228627  13.6608204  63.8749284  29.1447789  19.2116086
  64.5001988  28.6009922  19.4845518  63.4199764  28.6642707  18.6423877
  63.8997545  28.9937270  19.1677680  64.4401545  33.9294488   4.1049793
  64.5804506  34.4266952   4.8078435  64.9384078  33.2280782   4.2464007
  64.5342626  33.8996466   4.2301372  69.2777723  41.7494448  14.9286628
  68.7702814  42.3030295  15.3727259  68.9804369  41.8102738  14.1105403
  69.1582608  41.8400760  14.8735085  71.4439905  30.1147768  13.7711291
  71.8694977  29.6620294  13.1594818  70.8296898  29.5607839  14.0476079
  71.4168550  29.9661744  13.7216316  60.9754755  36.9929439   4.7031916
  61.4846984  37.5893947   5.0843222  61.4489027  36.7255413   4.0208336
  61.1198131  37.0415255   4.6586439  63.3345287  33.6285698   7.5705096
  62.6157276  34.0449831   7.8377960  63.7057649  34.1939937   7.0196735
  63.2837219  33.7734979   7.5287903  70.5791198  40.8500739  19.3855569
  70.5387052  40.2050416  18.8000725  71.3914516  40.7937356  19.6980981
  70.6934351  40.7459706  19.3452518  66.2668906  34.4797675  15.9405326
  65.7547809  33.8718858  16.2990358  66.0948402  35.1954268  16.4079302
  66.1658543  34.4960975  16.0621550  61.1134621  32.9235251  18.5907688
  60.9437211  33.5836626  18.0455895  60.6700571  33.1341812  19.3120177
  61.0233955  33.0521233  18.6169318  65.0394440  31.1639749   7.6334422
  65.5151807  31.5256829   6.9984603  64.5383040  31.8196216   7.9134565
  65.0359799  31.3133937   7.5811163  70.1437977  32.4021920  18.3807582
  70.7009407  32.1735730  17.7486047  69.8199042  33.1627586  18.1042794
  70.1784387  32.4805757  18.2464079  58.0136685  35.8282116  13.8496178
  57.4663405  35.1582762  13.9677046  58.8029064  35.4611964  13.9139645
  58.0488869  35.6747103  13.8764879  67.8621094  35.4889573  19.3459589
  68.6132421  35.8041250  19.6599143  68.0543670  35.2868744  18.5193511
  68.0012508  35.5056955  19.2702985  56.7723655  35.0402924  11.0042201
  56.5945416  34.5879533  11.7297117  56.4842677  35.8429086  11.1880679
  56.7036608  35.0925482  11.1385704  58.5096125  37.5730648   8.1163960
  57.6441644  37.5616338   8.0046731  58.6094941  37.3860871   8.9635099
  58.3970292  37.5436709   8.2252905  64.1353135  47.3428546  11.6894066
  64.4499694  48.1564935  11.6971847  64.5446548  46.9578765  12.3576225
  64.2421233  47.4057249  11.7898157  68.0047149  27.5326064  16.2155972
  68.1375055  26.7357057  16.5436948  68.3892302  28.0592467  16.7954248
  68.0803478  27.4925981  16.3499475  71.7251601  42.5516527  16.0225570
  71.1772547  41.9274411  15.7545636  72.1864629  42.7410799  15.3069650
  71.7118810  42.4875578  15.8776001  65.6635596  27.5285239  14.4633866
  66.2080009  27.1876366  15.0538208  65.7172532  28.3870700  14.6055151
  65.7524715  27.6040498  14.5715740  61.4766155  41.2901655  11.3372674
  62.0811012  41.2497489  10.7086495  61.2693467  42.1372807  11.3676730
  61.5355052  41.4089657  11.2488791  71.2909927  43.5567600  12.5534911
  72.1108301  43.4130566  12.8151207  71.0104005  44.1813799  13.0951349
  71.3706670  43.6277952  12.6722851  56.7117437  40.2736272  11.2071597
  56.6141715  39.4632544  11.5161654  57.4946307  40.2528066  10.8217865
  56.8133574  40.1503363  11.1958460  72.0855658  46.3142658  16.6532962
  71.5497847  45.7023016  16.9693730  72.1473422  46.8890794  17.3066629
  72.0151290  46.3089585  16.7968389  72.0867205  48.4420559  18.5907688
  71.9169795  49.1021933  18.0455895  71.6433154  48.6527120  19.3120177
  71.9966538  48.5706541  18.6169318   1.2775970  42.5338174  44.4423008
   1.2469975  43.3882811  44.6141277   1.8757319  42.2333466  45.0009151
   1.3613128  42.6154670  44.5497810   3.2088336  48.0329219  47.8986387
   2.3786040  48.2439862  48.0619804   3.1597589  47.2066273  47.6228671
   3.0795072  47.9418825  47.8823752   2.7042295  40.6799619  51.6936808
   1.8670716  40.7501806  51.9284403   2.6730526  40.6824114  50.8211111
   2.5760577  40.6909846  51.5996356   0.3850135  35.7442401  50.2780531
   1.0276043  35.8140506  50.8642446   0.6373155  35.0771624  49.7760073
   0.5172267  35.6568750  50.2907810   3.5996998  45.4209493  46.9270740
   4.2613432  44.8600162  46.8266649   2.9588410  44.9261524  47.2523431
   3.6025865  45.2645902  46.9603080   1.7152285  45.2776541  44.5052333
   2.0460502  45.8104182  43.8992428   2.2885373  45.3315429  45.1614284
   1.8485964  45.3646110  44.5130114   2.8231637  40.5187038  46.0092494
   2.5668202  39.7066980  45.8190377   3.6660951  40.5264605  45.7822682
   2.9097662  40.3999036  45.9477311   1.5293217  47.4581083  51.9079341
   1.2239034  48.1909140  52.2692657   0.8099432  47.0519013  51.6272127
   1.3780559  47.5062816  51.9192478   7.2295009  44.0974084  51.2347686
   7.1619509  44.1170043  50.3650272   7.2150671  44.9404411  51.4603356
   7.2173765  44.2247818  51.1400163   5.0153626  42.8718470  49.5094280
   5.5661548  42.2386539  49.7491372   4.9997742  43.4033863  50.2009784
   5.0938823  42.8567418  49.6473138   1.1130522  44.2374375  47.7819661
   1.0264496  44.3929801  48.6354440   0.6581002  44.8812451  47.4079066
   1.0333778  44.3550130  47.8526768   3.9461099  46.0174001  52.7543410
   4.0044223  46.4660650  53.5003386   3.3127566  46.4272814  52.3173490
   3.8612394  46.1447736  52.7995958   0.8982778  44.0390289  50.8409100
   0.6581001  43.1996704  50.8451527   1.3774786  44.1190455  51.5649874
   0.9334962  43.9271688  50.9483903   2.8987965  40.8191746  48.7938359
   2.6597735  40.7787580  47.9559144   3.0621867  41.6662898  48.9204080
   2.8878269  40.9383831  48.6891841   1.9369309  44.1668106  53.2273954
   2.5287150  44.8065357  53.2592152   2.3728304  43.4691143  53.5166021
   2.0887741  44.1586456  53.2754787   2.7590778  47.4752547  42.3492647
   3.1424384  48.2243903  42.5790744   1.9634892  47.7218366  42.0904636
   2.6984561  47.6222241  42.3450220  12.2508554  58.0523482  44.4423008
  12.2202558  58.9068118  44.6141277  12.8489903  57.7518774  45.0009151
  12.3345712  58.1339978  44.5497810   5.4508239  57.1399133  49.1975938
   4.5946134  57.3007631  49.2485055   5.4975892  56.2691197  49.2180999
   5.3307350  57.0349935  49.2082004   8.2960060  59.1991177  51.8407590
   8.8416020  59.8776263  51.9001560   8.2376936  59.0578638  50.9809171
   8.3675974  59.2783178  51.7219650  10.0725128  60.6275784  42.7141318
   9.9564654  61.3783470  43.1433456  10.8681015  60.3699737  42.9637405
  10.1729718  60.7010631  42.8145409   4.0057162  56.6185802  44.0845047
   4.7037327  56.7973929  44.5766510   4.3209494  56.0956141  43.4615436
   4.1552499  56.5679574  44.0647057   4.1945097  63.0056247  44.0724838
   4.6338733  62.3973347  44.5179611   4.0449760  62.6263620  43.3010303
   4.2366563  62.8594718  44.0244006   1.6616740  61.6000259  51.2743664
   2.3065743  61.1072702  50.9554612   1.9018517  61.7425045  52.1009742
   1.7927325  61.5477701  51.3493197   2.1784025  51.9878198  48.1666321
   1.8487356  52.4389342  47.4970020   1.5029027  51.9094362  48.7139328
   2.0294462  52.0429334  48.1489545   7.7954434  61.3583428  41.0255607
   7.7105729  62.2144395  41.1705176   8.2838817  61.0827752  41.6937767
   7.8543331  61.4440749  41.1457689   9.3860433  47.9763721  46.4115932
   9.0713874  48.6667200  46.8436354   8.8687375  47.9208504  45.7101433
   9.2624904  48.0698610  46.3712881   8.7272867  57.9768222  42.5253343
   8.1984339  58.1927856  43.1850649   9.2497887  58.6704361  42.4454312
   8.7261320  58.1111359  42.6108942  14.1820920  63.5514527  47.8986387
  13.3518623  63.7625170  48.0619804  14.1330172  62.7251581  47.6228671
  14.0527655  63.4604133  47.8823752   5.0749689  58.1197091  39.8029731
   5.3145693  58.3275075  38.9905074   5.3965530  57.3154600  39.9118676
   5.1586847  58.0311192  39.6990284  13.6774878  56.1984927  51.6936808
  12.8403299  56.2687114  51.9284403  13.6463109  56.2009422  50.8211111
  13.5493161  56.2095154  51.5996356   4.4196763  49.4587217  43.3816406
   5.1482924  49.2803171  42.9354562   4.5091656  50.3005296  43.5923584
   4.5403425  49.5571095  43.3469924   8.4005064  60.3940604  47.2848700
   9.1562579  60.8272118  47.3237609   8.5067389  59.7445374  47.8583336
   8.5275235  60.3618088  47.3746725  11.4385235  64.2213881  48.0351103
  11.0020467  64.2250624  48.7910074  11.1048151  64.9019380  47.6030680
  11.3247855  64.3226337  48.0831935  11.3582718  51.2627709  50.2780531
  12.0008627  51.3325814  50.8642446  11.6105739  50.5956932  49.7760073
  11.4904850  51.1754058  50.2907810  14.5729581  60.9394801  46.9270740
  15.2346015  60.3785469  46.8266649  13.9320993  60.4446832  47.2523431
  14.5758449  60.7831210  46.9603080  10.8594412  61.9560183  46.6682729
  11.0950001  62.1005382  45.8409580  11.0083976  62.7202591  47.0614243
  10.9160215  62.0899238  46.6046333  12.6884869  60.7961849  44.5052333
  13.0193086  61.3289489  43.8992428  13.2617957  60.8500737  45.1614284
  12.8218548  60.8831418  44.5130114   7.9016758  58.6426752  45.1875913
   7.9963612  59.3816046  45.6415538   7.2775602  58.2144228  45.6210477
   7.8225788  58.6888073  45.3184060   8.1539779  60.4875492  38.4212865
   8.0719942  60.5577679  39.2867852   8.7919500  61.0505236  38.2296605
   8.2359617  60.5814463  38.5202814   1.5132950  60.2536230  47.8887391
   1.2552195  59.4207965  47.8618691   1.5681433  60.4793843  47.0479891
   1.4832728  60.1634001  47.7607528   6.5934001  52.3564680  47.9891484
   5.8890327  51.8673866  48.1475403   6.6418975  52.3687155  47.1179928
   6.4964052  52.2854328  47.8830824   4.1540951  56.2797342  53.2344664
   3.7655384  55.8551559  52.5796855   3.4895650  56.5279491  53.7421691
   3.9987879  56.2536063  53.2132532  13.7964220  56.0372346  46.0092494
  13.5400785  55.2252288  45.8190377  14.6393534  56.0449913  45.7822682
  13.8830246  55.9184344  45.9477311   7.9767313  49.9771970  50.7468649
   8.3577825  49.2950141  51.1336523   7.1730597  49.6881572  50.5644313
   7.9143774  49.8339019  50.7772704   5.2579889  60.5095946  41.4321471
   6.0720528  60.8010839  41.3204243   5.1939031  59.8555808  40.8579764
   5.3682629  60.4561141  41.3310309  11.4789380  63.1921942  55.8451047
  11.2428017  62.3610007  55.7263108  12.1232609  63.1407549  56.4305891
  11.5384050  63.0619630  55.9136940   1.7690613  59.2019753  40.8968673
   2.1535765  58.9827460  41.6485218   1.5202233  60.0282699  41.0269749
   1.7892685  59.2917900  41.0269749  12.5025800  62.9766391  51.9079341
  12.1971617  63.7094448  52.2692657  11.7832016  62.5704321  51.6272127
  12.3513143  63.0248124  51.9192478  18.2027592  59.6159392  51.2347686
  18.1352093  59.6355351  50.3650272  18.1883255  60.4589719  51.4603356
  18.1906349  59.7433126  51.1400163   8.6123939  51.0194549  54.5588775
   9.3577531  50.8304360  54.1452200   8.1961243  51.5452787  54.0002631
   8.6608913  51.0696695  54.4153348  15.9886210  58.3903778  49.5094280
  16.5394131  57.7571847  49.7491372  15.9730325  58.9219171  50.2009784
  16.0671406  58.3752726  49.6473138   9.6914616  56.6300112  48.6198876
   9.3479382  55.9090447  48.9706126   9.7907659  56.4213963  47.7777235
   9.6556659  56.4924315  48.5470556  10.1527645  63.0925816  44.1622864
  10.7185678  63.7519026  44.0781407   9.5055548  63.4375514  44.6339267
  10.1406401  63.2407757  44.2195621   1.8533544  61.3273160  44.9980866
   1.6576326  61.9347894  44.4041169   2.0767889  60.6341104  44.5172540
   1.8568185  61.3150685  44.8396947   8.2105581  54.5491696  50.4958419
   7.3716682  54.5752975  50.2596682   8.2809949  55.1962432  51.0763766
   8.0973975  54.6487822  50.5467536   6.6574860  51.4477073  45.2286035
   7.3601212  51.2484822  44.7505993   6.3919048  50.6753016  45.5354879
   6.7221492  51.3040039  45.2031477  12.0863105  59.7559683  47.7819661
  11.9997080  59.9115109  48.6354440  11.6313585  60.3997759  47.4079066
  12.0066362  59.8735438  47.8526768   1.4203416  52.7112359  54.2816916
   1.2286613  52.7267493  55.1316339   2.2702012  52.9076033  54.2583571
   1.5179138  52.7426710  54.4040210   5.9588921  57.0770430  46.4045220
   5.7123636  56.9966181  47.2382009   6.2874044  56.2923898  46.2107748
   5.9710165  56.9496696  46.4992744   9.8536970  63.7853790  50.1932002
   9.7151329  64.4834835  50.6980744   9.0736968  63.6302446  49.8368183
   9.7180197  63.8653956  50.2158276   8.1915055  60.0850165  56.4454383
   8.1863094  59.2129981  56.4496810   8.8976049  60.2838334  55.9723839
   8.2960059  59.9854039  56.3761419   4.0905866  59.0117317  53.5993335
   3.3429180  59.2048332  53.1941613   4.2447391  58.1862537  53.3617456
   4.0028293  58.9182429  53.5038741  11.3490343  63.1432043  40.9548501
  10.9697152  62.3569181  40.9477790  10.6856588  63.6918900  40.8120145
  11.1948818  63.1076867  40.9329298   4.3307643  52.9067868  54.4888739
   4.7880257  53.6391842  54.6161531   4.4063972  52.4834333  55.2475995
   4.4098613  52.9525106  54.6189815   8.8034969  46.0857743  48.3582582
   8.9218537  46.5434206  47.6249884   8.6297145  45.2803004  48.0718799
   8.7954140  46.0351515  48.2083515   2.2090021  54.8969972  51.3330563
   1.4186096  54.7161432  51.6547899   2.6050644  54.1196924  51.3160857
   2.1506897  54.7557433  51.3783111   6.6955912  63.7257746  36.7737276
   7.4628897  63.7857871  36.3643128   6.2487221  63.1538188  36.2893595
   6.7429339  63.6494322  36.6414987   7.5933707  62.5312402  49.0590009
   6.9178709  62.2997634  49.5603396   7.6026083  61.9233585  48.4332114
   7.4952212  62.4071327  49.0406161   4.7227851  57.3730231  55.8154062
   4.6586992  58.2340187  55.6874198   4.8625039  57.0562224  55.0149613
   4.7343321  57.4530398  55.6782275   3.4046945  60.0662370  49.9570265
   2.9809194  60.2666869  49.2209283   3.2291800  59.2191218  50.0694564
   3.3157826  59.9711152  49.8643955   6.3797804  54.8308610  54.3113901
   6.5939774  54.1919524  53.7577255   5.7631703  55.2754434  53.8821763
   6.3203133  54.8018753  54.1664332   8.5436892  56.4397675  55.2497208
   7.7313574  56.1323565  55.3310381   9.0026827  55.9596675  55.8139920
   8.4917277  56.3234167  55.3451802   5.7712533  47.9408545  49.3001244
   4.9006091  47.9147267  49.2534553   6.0252874  47.7685738  48.4827089
   5.6806093  47.9118689  49.1721380   2.7430512  59.9976512  38.2374387
   3.0323037  60.7741395  38.5117961   2.8302311  59.4865244  38.9388886
   2.7984768  60.0368431  38.3816885   2.7961673  49.9514774  50.7574714
   2.2800162  49.2594965  50.8826293   2.2355602  50.6185551  50.7037313
   2.6368186  49.9478032  50.7680780   4.8653907  50.4907734  52.5867567
   4.4785660  50.5156765  53.3681097   4.3786844  49.9249413  52.1342083
   4.7366415  50.4103485  52.6355470  10.8403886  57.0570389  51.2107269
  10.4131494  56.9696737  50.4555368  10.2029939  57.1648164  51.7962113
  10.6833493  57.0603049  51.1852710   4.5311048  47.3774719  54.8777827
   5.1604166  47.9135019  54.5998897   4.6996911  47.2852078  55.7291392
   4.6488843  47.4436082  54.9626355   4.3324963  52.1645914  57.1504238
   5.1598393  51.8931063  57.2062853   4.3532809  52.9606756  57.5068056
   4.4577813  52.2425668  57.2119421   8.0234967  49.9110608  47.8463128
   8.2284560  49.8432916  48.6920125   7.6961391  50.7169429  47.7784306
   8.0050215  50.0196548  47.9622783   2.7211118  57.2391176  49.5872096
   2.4174255  56.6847164  50.1882504   2.0190539  57.4183386  49.1000131
   2.5727328  57.1835958  49.6041802   1.7777215  54.5491696  44.1516798
   2.0536949  53.8310608  43.7394366   2.3775884  55.1476616  43.9437904
   1.9070480  54.5312067  44.0597559  11.2768654  50.4642372  47.3265894
  10.6642968  50.9512774  47.7119626  11.3732829  49.7885863  47.8703545
  11.2006552  50.4360681  47.4644752   5.2787735  52.2205213  42.4263393
   5.7331482  52.3915774  43.1511238   5.7527781  51.6073324  42.0261169
   5.4156056  52.1556099  42.4737155  14.9193682  61.5359309  52.7543410
  14.9776806  61.9845958  53.5003386  14.2860150  61.9458122  52.3173490
  14.8344978  61.6633044  52.7995958   2.6200755  58.9247748  43.5308400
   3.3642800  59.3122024  43.7691350   2.7661452  58.0805173  43.6948888
   2.7511341  58.8578220  43.5902370   4.5380331  50.7198007  48.5640262
   3.6916376  50.8920814  48.4381612   4.5351463  49.9147350  48.9006090
   4.4127481  50.6259035  48.5951389   5.6078631  54.4973221  49.4302320
   5.1338586  53.9714983  49.9407631   5.9796767  53.9502694  48.8617181
   5.5928520  54.3389218  49.4217467  11.8715362  59.5575597  50.8409100
  11.6313585  58.7182012  50.8451527  12.3507369  59.6375763  51.5649874
  11.9067546  59.4456996  50.9483903   7.5362131  55.3909776  42.4928074
   7.0085150  55.4738520  41.8033782   7.9957839  56.1327647  42.4892718
   7.5263981  55.5130438  42.3902769  13.8720549  56.3377054  48.7938359
  13.6330319  56.2972888  47.9559144  14.0354450  57.1848206  48.9204080
  13.8610852  56.4569139  48.6891841  10.4766579  60.7227003  54.7243404
  11.2000778  60.2699530  54.5454424  10.2116541  61.0031669  53.9415732
  10.5447852  60.6977972  54.5822120   7.0899214  63.9613339  41.6237731
   7.8133412  64.4271452  41.4802304   6.6499805  64.0286949  40.8735328
   7.1314906  64.0397176  41.4922512   6.2585369  60.8210881  52.8738420
   5.6442362  60.2768932  53.1687055   6.7752654  60.3075118  52.3944236
   6.2441031  60.6647290  52.8462648   5.4981666  61.8915151  50.6082718
   5.0709274  61.2664870  50.1748154   5.4906610  61.6090073  51.4341725
   5.4340807  61.7567932  50.6662546   6.5564496  49.0941560  54.2321942
   6.0605057  49.2905234  53.5413508   7.3133558  49.4934228  54.0610743
   6.5951321  49.1819294  54.1042078   3.8267375  52.7683906  50.8225252
   3.8509863  52.2344018  50.1338032   4.0778849  52.2601215  51.4850843
   3.8677294  52.6144810  50.8189897   1.5283061  58.0115234  52.5004896
   0.6974991  58.1789052  52.2940144   1.4734578  57.6351185  53.2853781
   1.3972476  57.9804965  52.5853424  12.9101893  59.6853414  53.2273954
  13.5019733  60.3250665  53.2592152  13.3460888  58.9876451  53.5166021
  13.0620324  59.6771764  53.2754787   1.5098310  53.0851912  40.3333032
   1.8314151  52.6054994  39.6792294   1.7725254  53.8951558  40.1423844
   1.5964336  53.1341810  40.2088524   6.9057465  52.4724106  52.6956511
   7.3312537  52.0196632  52.0840038   6.2914458  51.9184177  52.9721299
   6.8786110  52.3238082  52.6461536   5.3451688  48.9439206  46.1047088
   4.7020006  48.7936852  46.6732227   5.0051095  48.6981551  45.3396193
   5.1996765  48.8851328  46.0750103   9.9351034  56.8998633  45.5277097
   9.2642224  57.4428335  45.3990162  10.6290785  57.3693488  45.2858792
   9.9379902  57.0496904  45.4732624  10.0979162  53.3554516  48.4367470
  10.4506772  52.9284239  49.1113269   9.2393963  53.2705360  48.5668546
  10.0228607  53.2799257  48.5562480   8.0962428  56.6189885  52.3852312
   8.0760355  56.4373180  53.2387091   8.1441628  57.4901903  52.3611896
   8.0997069  56.7206423  52.5075607   4.5709421  55.0260036  41.8323696
   3.9774261  55.3477032  41.2808263   4.6084699  54.1801131  41.6244802
   4.4883810  54.9484364  41.7206467  11.5303222  48.4772928  49.3651782
  11.0234087  47.7702068  49.2972960  12.3270656  48.1466117  49.4952859
  11.5730461  48.3246079  49.3750777   7.4467238  54.9839540  45.2625446
   7.2180931  55.0072242  44.4203804   7.7065314  54.1597007  45.3820457
   7.4513426  54.8655620  45.1550644  13.7323362  62.9937855  42.3492647
  14.1156968  63.7429211  42.5790744  12.9367475  63.2403674  42.0904636
  13.6717144  63.1407549  42.3450220   5.6055537  54.7598258  57.3052802
   6.1626967  54.5312067  56.6731267   5.2816602  55.5203924  57.0288014
   5.6401947  54.8382095  57.1709299   2.5438653  55.6657286  39.9253026
   2.9237618  55.6836916  39.1404141   1.8031250  56.1111275  39.8043873
   2.4907491  55.7339061  39.7916594  10.1723944  53.9739478  45.5128605
  10.1718170  53.8188134  46.3712881   9.9680124  54.8202465  45.4569990
  10.1423722  54.0760098  45.6316544   7.8964796  58.6536979  49.1664811
   8.3918461  57.9359974  49.1268832   7.0864572  58.3507777  49.0519298
   7.8508689  58.5034626  49.1438537   3.3423408  62.5034793  41.3161816
   2.5334730  62.1801466  41.2695125   3.8498316  61.7968015  41.2490064
   3.2973074  62.3516109  41.2992110   9.9616615  61.4040667  51.8541940
  10.3871686  60.8815089  51.3012365   9.5973535  62.0021504  51.3330563
   9.9703217  61.4150894  51.6950950   3.4664709  49.8902402  55.1401192
   3.5992615  49.0933395  55.4682168   3.8509862  50.4168805  55.7199468
   3.5421038  49.8502318  55.2744695   6.5397064  46.8132728  51.7382286
   5.7343028  46.7030457  52.0550124   6.4103800  46.9145184  50.8812151
   6.4017197  46.8116398  51.6590326   9.9963025  52.9778220  52.3321983
   9.4126014  53.4787426  51.9199550  10.3167319  52.4707776  51.6986306
   9.9576200  52.9770055  52.1780490   2.5357824  51.8918815  42.6080657
   3.3573519  52.0617127  42.3662352   2.0727475  52.0466076  41.8846955
   2.5888986  51.9400548  42.4652302   1.1253156  49.8861577  53.3879086
   1.6697569  49.5452704  53.9783428   1.1790092  50.7447038  53.5300371
   1.2142275  49.9616836  53.4960960  20.3593017  63.4949029  46.4115932
  20.0446458  64.1852508  46.8436354  19.8419958  63.4393811  45.7101433
  20.2357487  63.5883918  46.3712881  15.3929347  64.9772524  43.3816406
  16.1215507  64.7988479  42.9354562  15.4824240  65.8190604  43.5923584
  15.5136009  65.0756403  43.3469924  22.3315302  66.7813017  50.2780531
  22.9741210  66.8511121  50.8642446  22.5838322  66.1142240  49.7760073
  22.4637434  66.6939366  50.2907810  17.5666584  67.8749988  47.9891484
  16.8622911  67.3859174  48.1475403  17.6151558  67.8872463  47.1179928
  17.4696636  67.8039636  47.8830824  18.9499896  65.4957278  50.7468649
  19.3310408  64.8135449  51.1336523  18.1463181  65.2066880  50.5644313
  18.8876358  65.3524327  50.7772704  19.5856522  66.5379857  54.5588775
  20.3310114  66.3489668  54.1452200  19.1693827  67.0638095  54.0002631
  19.6341497  66.5882003  54.4153348  17.6307443  66.9662381  45.2286035
  18.3333796  66.7670130  44.7505993  17.3651632  66.1938324  45.5354879
  17.6954076  66.8225347  45.2031477  19.7767552  61.6043051  48.3582582
  19.8951121  62.0619514  47.6249884  19.6029728  60.7988312  48.0718799
  19.7686723  61.5536823  48.2083515  16.7445116  63.4593853  49.3001244
  15.8738674  63.4332574  49.2534553  16.9985457  63.2871046  48.4827089
  16.6538676  63.4303997  49.1721380  13.7694257  65.4700082  50.7574714
  13.2532745  64.7780273  50.8826293  13.2088186  66.1370859  50.7037313
  13.6100770  65.4663339  50.7680780  15.8386490  66.0093042  52.5867567
  15.4518243  66.0342073  53.3681097  15.3519427  65.4434720  52.1342083
  15.7098999  65.9288793  52.6355470  15.5043632  62.8960027  54.8777827
  16.1336750  63.4320327  54.5998897  15.6729495  62.8037386  55.7291392
  15.6221426  62.9621390  54.9626355  18.9967550  65.4295916  47.8463128
  19.2017144  65.3618224  48.6920125  18.6693974  66.2354737  47.7784306
  18.9782798  65.5381856  47.9622783  22.2501238  65.9827680  47.3265894
  21.6375552  66.4698082  47.7119626  22.3465413  65.3071171  47.8703545
  22.1739136  65.9545989  47.4644752  15.5112915  66.2383314  48.5640262
  14.6648960  66.4106122  48.4381612  15.5084047  65.4332658  48.9006090
  15.3860064  66.1444343  48.5951389  17.5297079  64.6126868  54.2321942
  17.0337641  64.8090542  53.5413508  18.2866141  65.0119536  54.0610743
  17.5683904  64.7004602  54.1042078  17.8790049  67.9909414  52.6956511
  18.3045120  67.5381940  52.0840038  17.2647042  67.4369485  52.9721299
  17.8518694  67.8423390  52.6461536  16.3184272  64.4624514  46.1047088
  15.6752589  64.3122160  46.6732227  15.9783679  64.2166859  45.3396193
  16.1729349  64.4036636  46.0750103  21.0711745  68.8739824  48.4367470
  21.4239356  68.4469547  49.1113269  20.2126547  68.7890668  48.5668546
  20.9961190  68.7984565  48.5562480  22.5035806  63.9958236  49.3651782
  21.9966670  63.2887376  49.2972960  23.3003239  63.6651425  49.4952859
  22.5463045  63.8431387  49.3750777  14.4397293  65.4087710  55.1401192
  14.5725198  64.6118703  55.4682168  14.8242446  65.9354113  55.7199468
  14.5153622  65.3687626  55.2744695  17.5129648  62.3318036  51.7382286
  16.7075612  62.2215765  52.0550124  17.3836384  62.4330491  50.8812151
  17.3749781  62.3301706  51.6590326   0.9726794  19.4716305  31.3763055
   0.9420799  20.3260942  31.5481324   1.5708143  19.1711598  31.9349198
   1.0563952  19.5532802  31.4837857   2.9039160  24.9707350  34.8326434
   2.0736863  25.1817994  34.9959850   2.8548413  24.1444405  34.5568717
   2.7745896  24.8796956  34.8163799   2.3993119  17.6177751  38.6276855
   1.5621540  17.6879938  38.8624450   2.3681350  17.6202245  37.7551158
   2.2711401  17.6287978  38.5336403   3.2947822  22.3587624  33.8610787
   3.9564256  21.7978293  33.7606695   2.6539234  21.8639655  34.1863478
   3.2976689  22.2024033  33.8943127   1.4103109  22.2154673  31.4392379
   1.7411326  22.7482313  30.8332474   1.9836197  22.2693560  32.0954330
   1.5436788  22.3024241  31.4470161   2.5182461  17.4565169  32.9432541
   2.2619026  16.6445111  32.7530424   3.3611775  17.4642737  32.7162728
   2.6048486  17.3377167  32.8817358   1.2244041  24.3959214  38.8419388
   0.9189858  25.1287271  39.2032704   0.5050256  23.9897144  38.5612174
   1.0731383  24.4440947  38.8532525   6.9245833  21.0352215  38.1687732
   6.8570333  21.0548174  37.2990319   6.9101495  21.8782542  38.3943403
   6.9124589  21.1625950  38.0740209   4.7104450  19.8096601  36.4434327
   5.2612372  19.1764670  36.6831419   4.6948565  20.3411994  37.1349831
   4.7889646  19.7945549  36.5813185   0.8081346  21.1752506  34.7159708
   0.7215320  21.3307932  35.5694487   0.3531825  21.8190582  34.3419113
   0.7284602  21.2928261  34.7866814   3.6411923  22.9552132  39.6883457
   3.6995047  23.4038781  40.4343433   3.0078390  23.3650945  39.2513537
   3.5563218  23.0825867  39.7336005   0.5933602  20.9768420  37.7749147
   0.3531825  20.1374835  37.7791574   1.0725609  21.0568587  38.4989921
   0.6285786  20.8649820  37.8823949   2.5938789  17.7569877  35.7278406
   2.3548559  17.7165711  34.8899191   2.7572691  18.6041029  35.8544127
   2.5829093  17.8761962  35.6231888   1.6320133  21.1046237  40.1614001
   2.2237974  21.7443488  40.1932199   2.0679128  20.4069274  40.4506068
   1.7838565  21.0964588  40.2094834   2.4541602  24.4130678  29.2832694
   2.8375208  25.1622034  29.5130791   1.6585716  24.6596498  29.0244683
   2.3935384  24.5600372  29.2790267   5.1459063  34.0777264  36.1315985
   4.2896958  34.2385762  36.1825102   5.1926716  33.2069328  36.1521046
   5.0258174  33.9728066  36.1422051   8.4552779  40.3463790  45.7376441
   9.1619546  39.8515820  45.8663376   8.6440715  40.7872871  45.0079099
   8.5880685  40.3382140  45.6485487   4.9825162  44.0365351  27.3238764
   4.6476531  44.7142273  26.8882986   5.4952033  43.6470663  26.7355635
   5.0090743  44.0789930  27.1725555   4.5229453  45.9879620  33.2649875
   4.9068833  46.5566519  32.7254651   4.4588595  45.2629130  32.7855691
   4.5702881  45.9655083  33.1143738   7.9910884  36.1369308  38.7747637
   8.5366844  36.8154394  38.8341606   7.9327760  35.9956769  37.9149218
   8.0626798  36.2161310  38.6559697   1.1084958  43.6258374  34.1615989
   1.2095321  42.8158728  34.4713117   0.5126704  43.5315320  33.5315668
   1.0357497  43.4923402  34.1142228   9.7675952  37.5653915  29.6481364
   9.6515478  38.3161601  30.0773503  10.5631839  37.3077868  29.8977451
   9.8680542  37.6388762  29.7485456   0.9485698  48.5435963  35.5630845
   1.5923154  48.9849127  35.9527004   1.2741954  47.7389389  35.4761104
   1.0917527  48.4901158  35.6076322   1.6506278  41.5547938  30.9350707
   1.9722119  42.0953145  30.3312015   2.2978374  40.9844709  31.0672997
   1.7932333  41.5507113  30.8657742   3.7007986  33.5563933  31.0185094
   4.3988151  33.7352060  31.5106557   4.0160318  33.0334272  30.3955483
   3.8503323  33.5057705  30.9987104   3.8895921  39.9434378  31.0064885
   4.3289557  39.3351478  31.4519658   3.7400584  39.5641751  30.2350350
   3.9317387  39.7972849  30.9584052   1.3567564  38.5378390  38.2083711
   2.0016567  38.0450833  37.8894659   1.5969341  38.6803176  39.0349789
   1.4878149  38.4855832  38.2833244   3.8953656  41.3833296  37.8590603
   4.1776898  40.5884701  37.6377359   4.6239816  41.8613883  37.8795664
   4.0443219  41.3367893  37.8293618   1.8734849  28.9256330  35.1006368
   1.5438179  29.3767473  34.4310067   1.1979851  28.8472493  35.6479375
   1.7245286  28.9807465  35.0829591   7.4905258  38.2961559  27.9595654
   7.4056553  39.1522526  28.1045223   7.9789641  38.0205883  28.6277813
   7.5494155  38.3818881  28.0797736   9.0811257  24.9141852  33.3455979
   8.7664698  25.6045331  33.7776401   8.5638199  24.8586635  32.6441480
   8.9575728  25.0076741  33.3052928   8.4223691  34.9146353  29.4593389
   7.8935162  35.1305987  30.1190696   8.9448711  35.6082492  29.3794359
   8.4212144  35.0489490  29.5448989  13.8771744  40.4892658  34.8326434
  13.0469447  40.7003302  34.9959850  13.8280996  39.6629712  34.5568717
  13.7478479  40.3982264  34.8163799   1.9381481  43.3196512  37.6674343
   1.4208423  42.9603927  37.0635651   2.6355873  42.7958686  37.6780410
   1.9647063  43.1894200  37.5804602   5.5945073  43.7691326  43.6290516
   5.6828419  43.5817467  44.4768727   6.0234786  43.1228756  43.2295363
   5.6707176  43.6454334  43.6962268   3.1615533  43.0522486  42.6108179
   2.5986368  42.6395096  43.1347840   3.9236557  42.9775392  43.0301322
   3.1909982  42.9799887  42.7501179   4.7700513  35.0575222  26.7369778
   5.0096517  35.2653206  25.9245121   5.0916354  34.2532731  26.8458723
   4.8537671  34.9689323  26.6330331   4.1147587  26.3965348  30.3156453
   4.8433748  26.2181303  29.8694609   4.2042480  27.2383427  30.5263631
   4.2354249  26.4949226  30.2809970   8.0955888  37.3318735  34.2188747
   8.8513403  37.7650249  34.2577655   8.2018212  36.6823505  34.7923383
   8.2226059  37.2996219  34.3086772  11.1336059  41.1592012  34.9691150
  10.6971291  41.1628755  35.7250121  10.7998975  41.8397511  34.5370727
  11.0198679  41.2604468  35.0171982   5.7065133  43.2000345  46.2934300
   6.4905549  43.3131193  46.6590042   5.5061727  42.3741482  46.4892986
   5.7931158  43.0947065  46.3768686  11.0533542  28.2005840  37.2120578
  11.6959450  28.2703945  37.7982493  11.3056563  27.5335063  36.7100120
  11.1855674  28.1132189  37.2247857   5.8635526  45.1110447  39.9400756
   5.0650772  44.8709947  40.1974624   6.3121538  45.1624840  40.6867803
   5.8110137  45.0832838  40.0885680  14.2680405  37.8772932  33.8610787
  14.9296839  37.3163601  33.7606695  13.6271817  37.3824963  34.1863478
  14.2709273  37.7209341  33.8943127   5.1557213  41.1743064  26.1691710
   5.5708362  40.8428087  25.4776206   4.3249143  40.9411966  26.0411847
   5.0945222  41.0914320  26.0482558  10.5545236  38.8938315  33.6022776
  10.7900825  39.0383513  32.7749626  10.7034800  39.6580723  33.9954289
  10.6111039  39.0277369  33.5386380  12.3835693  37.7339981  31.4392379
  12.7143910  38.2667621  30.8332474  12.9568781  37.7878868  32.0954330
  12.5169372  37.8209549  31.4470161   4.9236263  38.8570892  47.8320944
   4.1309244  39.1714404  48.0173563   5.0385190  39.0722361  46.9941728
   4.8231673  38.9354729  47.7359279   7.5967582  35.5804883  32.1215960
   7.6914436  36.3194177  32.5755585   6.9726425  35.1522359  32.5550524
   7.5176612  35.6266204  32.2524107   5.8520056  38.7591096  42.7706240
   6.4258917  38.1218340  42.9254804   5.7734859  38.7595178  41.9015898
   5.9253291  38.6656207  42.6652651   7.8490603  37.4253623  25.3552912
   7.7670766  37.4955810  26.2207899   8.4870324  37.9883367  25.1636652
   7.9310441  37.5192594  25.4542861   1.2083774  37.1914361  34.8227438
   0.9503019  36.3586096  34.7958737   1.2632257  37.4171974  33.9819938
   1.1783552  37.1012132  34.6947575   6.2884825  29.2942812  34.9231531
   5.5841151  28.8051997  35.0815450   6.3369799  29.3065286  34.0519975
   6.1914876  29.2232460  34.8170870   3.8491775  33.2175473  40.1684711
   3.4606208  32.7929690  39.5136902   3.1846474  33.4657622  40.6761738
   3.6938703  33.1914194  40.1472579   7.6718137  26.9150101  37.6808695
   8.0528648  26.2328273  38.0676570   6.8681421  26.6259704  37.4984360
   7.6094598  26.7717150  37.7112751   4.9530713  37.4474077  28.3661518
   5.7671352  37.7388970  28.2544289   4.8889855  36.7933940  27.7919811
   5.0633452  37.3939272  28.2650355  11.1740204  40.1300073  42.7791094
  10.9378841  39.2988138  42.6603154  11.8183433  40.0785681  43.3645938
  11.2334874  39.9997761  42.8476987   0.8238622  40.9195595  33.4933830
   1.4612569  40.6807342  34.0385624   1.2493693  41.1232754  32.7586991
   0.9814788  40.9146605  33.4650987   1.4641437  36.1397885  27.8308720
   1.8486589  35.9205591  28.5825265   1.2153057  36.9660830  27.9609796
   1.4843509  36.2296031  27.9609796   1.6309977  29.4204300  47.5471304
   1.3163418  30.1903862  47.2840866   1.3099910  28.8574556  46.9623531
   1.5368896  29.4514568  47.4212654  12.1976624  39.9144522  38.8419388
  11.8922441  40.6472579  39.2032704  11.4782840  39.5082452  38.5612174
  12.0463967  39.9626255  38.8532525   3.2060094  41.3968017  35.1727616
   3.2799102  41.2343189  36.0269466   4.0229600  41.5858207  34.9288098
   3.3376452  41.4004760  35.2625642   8.3074763  27.9572681  41.4928822
   9.0528355  27.7682491  41.0792247   7.8912067  28.4830919  40.9342678
   8.3559737  28.0074826  41.3493395   1.7464679  44.3602760  29.9041090
   2.0362978  43.9691742  29.1800316   2.4768160  44.5419465  30.3446365
   1.8971564  44.3296574  29.8623897   2.3359425  39.1620506  40.9894220
   1.8371118  39.8736274  41.0679109   3.1459649  39.4821173  40.9512383
   2.3815531  39.3147355  40.9950789   9.3865440  33.5678243  35.5538923
   9.0430206  32.8468578  35.9046173   9.4858482  33.3592094  34.7117281
   9.3507483  33.4302446  35.4810603   1.8538551  47.7099533  31.7531932
   2.5062609  47.1775975  31.9822958   1.1564159  47.3568185  32.1399806
   1.8469269  47.5789056  31.8444100   9.8478469  40.0303947  31.0962911
  10.4136502  40.6897157  31.0121454   9.2006372  40.3753645  31.5679313
   9.8357225  40.1785888  31.1535668   1.2626483  32.0201551  46.2856519
   0.4526258  32.3259330  46.1746361   1.7401169  32.7407133  46.4009103
   1.2129961  32.1716152  46.2863590   6.3185047  42.9742731  30.5199990
   6.0771723  42.2410592  30.1127055   6.4986380  43.5229588  29.8666324
   6.3092671  42.9465122  30.3630213   1.5484368  38.2651291  31.9320913
   1.3527150  38.8726025  31.3381216   1.7718713  37.5719235  31.4512587
   1.5519009  38.2528816  31.7736993   7.9056405  31.4869827  37.4298466
   7.0667506  31.5131106  37.1936729   7.9760773  32.1340563  38.0103813
   7.7924799  31.5865953  37.4807583   6.3525684  28.3855205  32.1626082
   7.0552036  28.1862953  31.6846040   6.0869872  27.6131147  32.4694925
   6.4172316  28.2418171  32.1371523  11.7813929  36.6937814  34.7159708
  11.6947904  36.8493240  35.5694487  11.3264409  37.3375890  34.3419113
  11.7017186  36.8113569  34.7866814   1.1154240  29.6490490  41.2156963
   0.9237437  29.6645624  42.0656386   1.9652836  29.8454164  41.1923617
   1.2129962  29.6804841  41.3380257   5.6539745  34.0148561  33.3385267
   5.4074459  33.9344312  34.1722056   5.9824868  33.2302029  33.1447795
   5.6660989  33.8874827  33.4332790   9.5487794  40.7231921  37.1272048
   9.4102153  41.4212967  37.6320791   8.7687792  40.5680577  36.7708230
   9.4131021  40.8032087  37.1498323   7.8865879  37.0228296  43.3794430
   7.8813918  36.1508113  43.3836857   8.5926873  37.2216465  42.9063886
   7.9910883  36.9232170  43.3101466   1.6136772  36.7505280  42.7508250
   1.7580148  37.3306488  42.1151360   1.9612421  37.1281577  43.4558105
   1.6864234  36.8925984  42.7607245   3.7856690  35.9495448  40.5333382
   3.0380004  36.1426463  40.1281660   3.9398215  35.1240668  40.2957503
   3.6979117  35.8560560  40.4378788   0.6864527  44.9408052  39.6169277
   0.8354091  44.3810968  38.9642682   1.4664530  45.0200053  40.0001796
   0.8238621  44.8693617  39.5766226  11.0441167  40.0810174  27.8888548
  10.6647976  39.2947312  27.8817837  10.3807412  40.6297031  27.7460192
  10.8899642  40.0454998  27.8669345   3.2117828  45.1122695  40.8953768
   3.1361499  44.4431505  41.4504556   3.1407687  45.8140483  41.4094434
   3.1898435  45.1167602  41.0530616   4.0258467  29.8445999  41.4228786
   4.4831081  30.5769973  41.5501578   4.1014796  29.4212464  42.1816041
   4.1049437  29.8903237  41.5529862   8.4985793  23.0235874  35.2922629
   8.6169361  23.4812338  34.5589931   8.3247969  22.2181135  35.0058846
   8.4904964  22.9729646  35.1423562   3.8688075  43.6323694  31.7277374
   4.6337966  43.3633337  31.4060038   3.7666165  43.1473704  32.4447437
   3.9669570  43.5213258  31.7857202   1.9040845  31.8348103  38.2670610
   1.1136920  31.6539563  38.5887945   2.3001468  31.0575056  38.2500904
   1.8457721  31.6935564  38.3123158   6.3906736  40.6635877  23.7077323
   7.1579721  40.7236002  23.2983175   5.9438045  40.0916319  23.2233642
   6.4380163  40.5872453  23.5755034   7.2884531  39.4690533  35.9930056
   6.6129533  39.2375765  36.4943443   7.2976907  38.8611716  35.3672161
   7.1903036  39.3449458  35.9746208   4.4178675  34.3108362  42.7494109
   4.3537816  35.1718319  42.6214245   4.5575863  33.9940355  41.9489660
   4.4294145  34.3908529  42.6122321   9.2901266  42.3255666  28.2240234
   9.3721103  43.1322652  27.9001684   9.7751008  42.3451625  28.9481007
   9.3738424  42.4476328  28.2827132   3.0997769  37.0040501  36.8910311
   2.6760018  37.2045000  36.1549330   2.9242624  36.1569349  37.0034611
   3.0108650  36.9089283  36.7984002   2.6009462  48.5191014  39.3531769
   3.0905393  47.8201804  39.1707433   2.0293695  48.2214884  39.9407826
   2.5893992  48.3717238  39.4132810   4.9259359  36.8750436  31.1931647
   5.4674904  36.3720818  31.6570268   5.2405918  36.8215631  30.3821132
   5.0523756  36.7929857  31.1415459   8.7976466  41.0853084  48.3058559
   9.6111331  40.8138233  48.4663692   8.6371432  40.7860624  47.5018755
   8.8946414  41.0008010  48.2103965   3.0945808  42.2667788  28.4771675
   3.1638629  41.4082326  28.6164676   3.8734263  42.4839669  28.1490700
   3.2198658  42.1720652  28.4488833   6.0748628  31.7686741  41.2453948
   6.2890597  31.1297655  40.6917302   5.4582527  32.2132565  40.8161809
   6.0153957  31.7396885  41.1004379   7.4853296  44.6905489  32.6908169
   7.0933088  44.3872204  31.9731035   7.6406368  45.5274579  32.5013122
   7.4506886  44.7689326  32.5564666   8.2387716  33.3775806  42.1837255
   7.4264398  33.0701697  42.2650428   8.6977651  32.8974806  42.7479967
   8.1868101  33.2612299  42.2791849   7.6492971  41.2555478  32.6314199
   7.2907625  41.4270121  33.4078232   7.1631681  41.7168684  32.0742198
   7.5251668  41.3494449  32.6639468   5.4663357  24.8786677  36.2341291
   4.5956915  24.8525398  36.1874600   5.7203698  24.7063869  35.4167136
   5.3756917  24.8496820  36.1061427   2.4381336  36.9354644  25.1714434
   2.7273861  37.7119526  25.4458008   2.5253135  36.4243375  25.8728933
   2.4935592  36.9746562  25.3156931   5.3341223  34.7835878  46.9665957
   5.8040855  35.4077994  47.3533831   5.3803104  34.1152853  47.5259172
   5.4109099  34.7770558  47.1066029   2.4912497  26.8892905  37.6914761
   1.9750986  26.1973097  37.8166340   1.9306426  27.5563682  37.6377360
   2.3319010  26.8856163  37.7020827   4.5604731  27.4285865  39.5207613
   4.1736484  27.4534897  40.3021143   4.0737668  26.8627544  39.0682130
   4.4317239  27.3481616  39.5695517   8.8097710  42.1459374  43.5781400
   9.4477430  41.6519570  43.2443856   8.1671802  42.0736775  42.9933627
   8.8091936  42.0618383  43.4423755  10.5354710  33.9948520  38.1447316
  10.1082318  33.9074869  37.3895415   9.8980763  34.1026296  38.7302160
  10.3784317  33.9981180  38.1192757   4.2261872  24.3152851  41.8117873
   4.8554990  24.8513151  41.5338944   4.3947735  24.2230210  42.6631439
   4.3439667  24.3814213  41.8966401   4.0275787  29.1024045  44.0844285
   4.8549216  28.8309194  44.1402899   4.0483633  29.8984887  44.4408103
   4.1528637  29.1803800  44.1459468   8.8651967  42.8379182  40.2186757
   9.6544345  42.4868247  40.3388838   9.0395564  43.6515571  39.9563391
   9.0072248  42.9065039  40.1974625   7.7185791  26.8488739  34.7803175
   7.9235384  26.7811047  35.6260172   7.3912215  27.6547560  34.7124353
   7.7001039  26.9574679  34.8962830   2.4161942  34.1769307  36.5212143
   2.1125079  33.6225296  37.1222551   1.7141363  34.3561517  36.0340177
   2.2678152  34.1214090  36.5381849   1.4728039  31.4869827  31.0856845
   1.7487773  30.7688740  30.6734412   2.0726708  32.0854747  30.8777951
   1.6021304  31.4690198  30.9937606   0.4780293  41.3919028  41.2284241
   0.3700648  41.4021090  42.0946299   0.6876074  42.2173808  41.0389195
   0.4930404  41.5160103  41.3288333  10.9719478  27.4020503  34.2605941
  10.3593792  27.8890905  34.6459672  11.0683653  26.7263994  34.8043592
  10.8957376  27.3738812  34.3984799   4.9738559  29.1583344  29.3603440
   5.4282306  29.3293905  30.0851285   5.4478605  28.5451455  28.9601216
   5.1106880  29.0934230  29.4077202  14.6144506  38.4737440  39.6883457
  14.6727630  38.9224089  40.4343433  13.9810974  38.8836253  39.2513537
  14.5295801  38.6011175  39.7336005   8.2543601  44.0940982  36.1238203
   8.0563290  44.5831796  35.4294414   7.6331312  44.2982223  36.7022336
   8.1331166  44.1957520  36.1061426   2.3151579  35.8625879  30.4648447
   3.0593624  36.2500155  30.7031397   2.4612276  35.0183304  30.6288935
   2.4462165  35.7956352  30.5242417   4.2331155  27.6576138  35.4980309
   3.3867200  27.8298945  35.3721658   4.2302287  26.8525481  35.8346137
   4.1078305  27.5637167  35.5291436   5.3029455  31.4351352  36.3642367
   4.8289410  30.9093114  36.8747677   5.6747591  30.8880825  35.7957228
   5.2879344  31.2767349  36.3557514  11.5666186  36.4953728  37.7749147
  11.3264409  35.6560143  37.7791574  12.0458193  36.5753894  38.4989921
  11.6018370  36.3835127  37.8823949   7.2312955  32.3287907  29.4268120
   6.7035974  32.4116651  28.7373829   7.6908663  33.0705778  29.4232765
   7.2214805  32.4508569  29.3242816  10.1717403  37.6605134  41.6583451
  10.8951602  37.2077661  41.4794471   9.9067365  37.9409800  40.8755779
  10.2398676  37.6356103  41.5162167   6.7850037  40.8991470  28.5577777
   7.5084236  41.3649583  28.4142351   6.3450628  40.9665080  27.8075374
   6.8265730  40.9775307  28.4262559   5.9536193  37.7589013  39.8078466
   5.3393186  37.2147063  40.1027102   6.4703477  37.2453249  39.3284283
   5.9391855  37.6025422  39.7802695   5.1932490  38.8293283  37.5422765
   4.7660098  38.2043001  37.1088200   5.1857434  38.5468204  38.3681772
   5.1291631  38.6946063  37.6002593   6.2515320  26.0319691  41.1661988
   5.7555881  26.2283365  40.4753555   7.0084382  26.4312359  40.9950790
   6.2902144  26.1197425  41.0382125   3.5218199  29.7062037  37.7565299
   3.5460687  29.1722149  37.0678079   3.7729673  29.1979346  38.4190890
   3.5628118  29.5522941  37.7529944   1.9849134  37.9993595  45.2391338
   1.1344765  38.1365310  45.3748983   2.1477262  37.2657374  45.6839040
   1.8832998  37.9107697  45.3246937   1.2233885  34.9493365  39.4344942
   0.3925815  35.1167183  39.2280190   1.1685402  34.5729316  40.2193828
   1.0923300  34.9183096  39.5193470  12.6052717  36.6231545  40.1614001
  13.1970557  37.2628796  40.1932199  13.0411711  35.9254582  40.4506068
  12.7571148  36.6149895  40.2094834   1.2049134  30.0230043  27.2673079
   1.5264975  29.5433126  26.6132341   1.4676078  30.8329689  27.0763891
   1.2915159  30.0719941  27.1428571   4.4346107  41.0448917  40.7871895
   3.9271198  41.5984764  41.2312525   4.1372753  41.1057207  39.9690669
   4.3150992  41.1355229  40.7320352   6.6008289  29.4102237  39.6296558
   7.0263361  28.9574764  39.0180084   5.9865282  28.8562308  39.9061345
   6.5736934  29.2616213  39.5801583   7.0453887  44.9612175  28.7175838
   6.3283197  44.7873037  28.2523076   7.6960625  44.7264747  28.1851324
   7.0355738  44.9007968  28.5705056   5.0402512  25.8817337  33.0387135
   4.3970830  25.7314983  33.6072273   4.7001919  25.6359682  32.2736240
   4.8947589  25.8229459  33.0090150   9.6301858  33.8376764  32.4617144
   8.9593048  34.3806466  32.3330209  10.3241609  34.3071619  32.2198838
   9.6330726  33.9875035  32.4072671   3.6788592  45.9773476  37.6928902
   3.4554247  45.2192305  38.0612928   3.1898435  46.0071497  36.9709342
   3.5732041  45.8695700  37.6405643   9.7929986  30.2932647  35.3707517
  10.1457596  29.8662370  36.0453316   8.9344787  30.2083491  35.5008593
   9.7179430  30.2177388  35.4902527   7.7913252  33.5568016  39.3192359
   7.7711179  33.3751311  40.1727138   7.8392452  34.4280034  39.2951943
   7.7947893  33.6584554  39.4415654   5.7359581  40.1455208  45.2440836
   5.6955436  39.5004885  44.6585991   6.5482900  40.0891825  45.5566248
   5.8502735  40.0414175  45.2037785   2.3267049  46.1973934  35.1465986
   1.9127448  45.5348064  34.7569828   3.0114423  46.3451793  34.6261681
   2.3665421  46.1214592  35.0122484   5.6932343  45.3564019  35.8989603
   5.2948626  45.4666289  35.1310423   5.0783563  45.5646085  36.4816163
   5.5431232  45.4037587  35.8720902   4.2660245  31.9638167  28.7663743
   3.6725084  32.2855163  28.2148310   4.3035523  31.1179262  28.5584849
   4.1834634  31.8862495  28.6546514  11.2254046  25.4151059  36.2991829
  10.7184911  24.7080199  36.2313007  12.0221480  25.0844248  36.4292906
  11.2681285  25.2624211  36.3090824   7.1418062  31.9217671  32.1965493
   6.9131755  31.9450373  31.3543851   7.4016138  31.0975138  32.3160504
   7.1464250  31.8033751  32.0890691   1.4237290  33.7752144  41.7990593
   0.9116193  33.1673327  42.1575625   1.2516786  34.4908737  42.2664569
   1.3226927  33.7915444  41.9206817  13.4274186  39.9315986  29.2832694
  13.8107792  40.6807342  29.5130791  12.6318299  40.1781805  29.0244683
  13.3667968  40.0785680  29.2790267   5.3006361  31.6976389  44.2392849
   5.8577791  31.4690199  43.6071314   4.9767426  32.4582055  43.9628061
   5.3352771  31.7760226  44.1049346   3.0189478  34.7844042  45.2044856
   3.7700805  35.0995719  45.5184410   3.2112054  34.5823213  44.3778778
   3.1580892  34.8011424  45.1288252   2.2389477  32.6035418  26.8593073
   2.6188442  32.6215047  26.0744187   1.4982073  33.0489406  26.7383920
   2.1858315  32.6717192  26.7256641   9.8674768  30.9117609  32.4468651
   9.8668994  30.7566265  33.3052928   9.6630948  31.7580596  32.3910037
   9.8374546  31.0138229  32.5656591   7.5915620  35.5915111  36.1004858
   8.0869285  34.8738106  36.0608878   6.7815396  35.2885908  35.9859345
   7.5459513  35.4412757  36.0778584   3.0374232  39.4412924  28.2501863
   2.2285554  39.1179597  28.2035172   3.5449140  38.7346146  28.1830111
   2.9923898  39.2894240  28.2332157   9.6567439  38.3418798  38.7881987
  10.0822510  37.8193220  38.2352412   9.2924359  38.9399635  38.2670610
   9.6654041  38.3529025  38.6290997   6.2446038  42.0553062  35.1183144
   6.7157216  42.7693325  35.2873130   6.5806217  41.4551812  35.6543014
   6.3641153  42.0724527  35.2215520   8.3323023  43.6654376  47.2975217
   8.4419988  42.8762936  47.6531964   8.6613919  43.5760312  46.4949555
   8.3975429  43.5360229  47.2317607   3.1615533  26.8280533  42.0741239
   3.2943439  26.0311526  42.4022215   3.5460686  27.3546936  42.6539515
   3.2371862  26.7880450  42.2084742   6.8819985  41.8470996  41.8810837
   6.3340931  41.2228880  41.6130902   7.3433013  42.0365268  41.1654916
   6.8687194  41.7830047  41.7361268   6.2347888  23.7510859  38.6722332
   5.4293852  23.6408589  38.9890171   6.1054624  23.8523315  37.8152198
   6.0968021  23.7494529  38.5930373   9.6913849  29.9156351  39.2662029
   9.1076838  30.4165557  38.8539597  10.0118143  29.4085907  38.6326353
   9.6527024  29.9148186  39.1120537   2.2308648  28.8296946  29.5420704
   3.0524342  28.9995259  29.3002399   1.7678299  28.9844207  28.8187002
   2.2839810  28.8778679  29.3992348   0.8203980  26.8239708  40.3219133
   1.3648393  26.4830835  40.9123475   0.8740916  27.6825170  40.4640418
   0.9093099  26.8994967  40.4301006   6.4478311  42.8522069  38.4120178
   7.2676685  42.7085035  38.6736473   6.1672389  43.4768268  38.9536616
   6.5275054  42.9232421  38.5308118  22.9191961  50.5086921  31.3763055
  22.8885966  51.3631558  31.5481324  23.5173310  50.2082213  31.9349198
  23.0029119  50.5903417  31.4837857  16.1191646  49.5962572  36.1315985
  15.2629542  49.7571070  36.1825102  16.1659300  48.7254636  36.1521046
  15.9990758  49.4913374  36.1422051  10.5032786  59.1325290  31.8953217
   9.7515685  58.7540828  31.6669262  10.9518798  59.1643723  31.1472027
  10.4582453  59.0810897  31.7510719  19.4285363  55.8649097  45.7376441
  20.1352130  55.3701128  45.8663376  19.6173298  56.3058179  45.0079099
  19.5613268  55.8567448  45.6485487  15.9557746  59.5550659  27.3238764
  15.6209114  60.2327581  26.8882986  16.4684616  59.1655971  26.7355635
  15.9823327  59.5975237  27.1725555  15.4962037  61.5064928  33.2649875
  15.8801416  62.0751827  32.7254651  15.4321178  60.7814438  32.7855691
  15.5435464  61.4840391  33.1143738  18.9643467  51.6554616  38.7747637
  19.5099427  52.3339702  38.8341606  18.9060343  51.5142077  37.9149218
  19.0359382  51.7346617  38.6559697  12.0817542  59.1443682  34.1615989
  12.1827905  58.3344036  34.4713117  11.4859287  59.0500628  33.5315668
  12.0090081  59.0108710  34.1142228  20.7408536  53.0839223  29.6481364
  20.6248062  53.8346909  30.0773503  21.5364423  52.8263176  29.8977451
  20.8413125  53.1574070  29.7485456  11.9218282  64.0621271  35.5630845
  12.5655737  64.5034435  35.9527004  12.2474537  63.2574697  35.4761104
  12.0650110  64.0086466  35.6076322   5.2782586  55.1663968  33.7868323
   5.0432771  54.3331621  33.6800592   5.4168227  55.4468634  32.9729524
   5.2638249  55.0847472  33.6510678   7.5772674  47.3349699  36.6852630
   6.9577705  46.7442346  36.5162645   7.4756537  47.9261134  36.0516954
   7.4710349  47.3353782  36.5657620  12.6238861  57.0733246  30.9350707
  12.9454702  57.6138453  30.3312015  13.2710958  56.5030017  31.0672997
  12.7664917  57.0692421  30.8657742  14.6740569  49.0749241  31.0185094
  15.3720734  49.2537368  31.5106557  14.9892902  48.5519580  30.3955483
  14.8235907  49.0243013  30.9987104   7.3041807  50.8801981  38.9296199
   7.1800504  51.4664426  39.5646018   7.9560091  50.3862176  39.2308474
   7.3815456  50.8940785  39.0682129  14.8628505  55.4619686  31.0064885
  15.3022140  54.8536786  31.4519658  14.7133168  55.0827059  30.2350350
  14.9049970  55.3158157  30.9584052  12.3300148  54.0563698  38.2083711
  12.9749150  53.5636141  37.8894659  12.5701925  54.1988484  39.0349789
  12.4610733  54.0041140  38.2833244  14.8686239  56.9018604  37.8590603
  15.1509482  56.1070009  37.6377359  15.5972400  57.3799191  37.8795664
  15.0175803  56.8553200  37.8293618  12.8467433  44.4441638  35.1006368
  12.5170763  44.8952781  34.4310067  12.1712435  44.3657801  35.6479375
  12.6977869  44.4992773  35.0829591  18.4637841  53.8146867  27.9595654
  18.3789136  54.6707834  28.1045223  18.9522225  53.5391191  28.6277813
  18.5226739  53.9004189  28.0797736  19.3956275  50.4331661  29.4593389
  18.8667746  50.6491295  30.1190696  19.9181295  51.1267800  29.3794359
  19.3944728  50.5674798  29.5448989  24.8504327  56.0077966  34.8326434
  24.0202031  56.2188609  34.9959850  24.8013580  55.1815020  34.5568717
  24.7211063  55.9167572  34.8163799  11.2855882  54.3294878  28.2600857
  10.7013098  54.8344909  28.6666721  10.8825978  54.1037265  27.5197449
  11.1395186  54.3703126  28.2105883   6.8399911  60.0449639  35.0624529
   6.3567489  60.7700129  35.0384113   7.6523229  60.3425769  35.1734687
   6.8890659  60.1951993  35.0751808  12.9114065  58.8381820  37.6674343
  12.3941007  58.4789235  37.0635651  13.6088456  58.3143994  37.6780410
  12.9379646  58.7079508  37.5804602  16.5677657  59.2876634  43.6290516
  16.6561003  59.1002774  44.4768727  16.9967370  58.6414064  43.2295363
  16.6439759  59.1639642  43.6962268  14.1348117  58.5707794  42.6108179
  13.5718952  58.1580404  43.1347840  14.8969140  58.4960700  43.0301322
  14.1642565  58.4985195  42.7501179  15.7433097  50.5760530  26.7369778
  15.9829100  50.7838514  25.9245121  16.0648938  49.7718039  26.8458723
  15.8270255  50.4874631  26.6330331  11.0523387  42.5053926  30.5829316
  11.8069355  42.8732243  30.3446366  10.8750922  42.8793480  31.3508496
  11.1377865  42.6152114  30.6614204   9.6944108  60.5605815  35.2144809
  10.3964688  60.0457804  35.2717565   9.6141591  60.8879967  36.0191684
   9.7867869  60.5320041  35.3417601  24.3458286  48.6548366  38.6276855
  23.5086707  48.7250554  38.8624450  24.3146517  48.6572861  37.7551158
  24.2176568  48.6658593  38.5336403  10.7423015  50.7981402  44.3425224
  10.9143519  50.6887297  45.1910505  11.2792372  51.4435808  44.1056416
  10.8468019  50.8773404  44.4330321   9.4080452  44.9124245  27.2807429
   9.2256025  45.1296126  26.4548422  10.2706065  45.0263258  27.3366043
   9.5085041  44.9614143  27.1661916   9.0194884  56.7512167  34.7230417
   9.8583783  56.9835100  34.7704178   9.0506653  55.8816479  34.6537452
   9.1476601  56.6569114  34.7195061   9.6447587  57.1713042  39.0243722
  10.1845812  57.0284173  39.6947095   8.9617533  57.5709793  39.3927749
   9.6239741  57.2092713  39.1778144  15.0880171  41.9150656  30.3156453
  15.8166331  41.7366611  29.8694609  15.1775064  42.7568735  30.5263631
  15.2086833  42.0134534  30.2809970  19.0688472  52.8504043  34.2188747
  19.8245987  53.2835557  34.2577655  19.1750796  52.2008813  34.7923383
  19.1958642  52.8181527  34.3086772  22.1068643  56.6777320  34.9691150
  21.6703875  56.6814063  35.7250121  21.7731558  57.3582819  34.5370727
  21.9931263  56.7789776  35.0171982  16.6797716  58.7185653  46.2934300
  17.4638133  58.8316501  46.6590042  16.4794311  57.8926790  46.4892986
  16.7663742  58.6132372  46.3768686   5.0484732  53.3913333  39.1778144
   4.7823147  52.5752450  39.3369134   5.0623296  53.4366489  38.3073659
   5.0109454  53.2770238  39.0731626   8.9542479  48.1898418  25.7929902
   8.2400656  47.9036597  26.2052334   9.4386447  48.5295043  26.4336289
   8.9201842  48.1980067  25.9485537   9.7983338  46.9291711  41.8245152
   9.1055135  46.4588691  42.0705883  10.4143665  46.7030016  42.3986859
   9.7867868  46.8258843  41.9454304  16.8368110  60.6295755  39.9400756
  16.0383355  60.3895255  40.1974624  17.2854121  60.6810148  40.6867803
  16.7842721  60.6018146  40.0885680  25.2412989  53.3958240  33.8610787
  25.9029423  52.8348909  33.7606695  24.6004401  52.9010271  34.1863478
  25.2441856  53.2394649  33.8943127  16.1289797  56.6928372  26.1691710
  16.5440945  56.3613395  25.4776206  15.2981726  56.4597274  26.0411847
  16.0677805  56.6099627  26.0482558   5.4578145  54.1772113  36.4589888
   5.2753719  54.1518999  35.6062180   6.1927814  54.6471050  36.4978797
   5.5392209  54.2433475  36.3387807  21.5277820  54.4123623  33.6022776
  21.7633409  54.5568821  32.7749626  21.6767383  55.1766031  33.9954289
  21.5843623  54.5462677  33.5386380   8.5223897  50.8957115  42.9671997
   9.2463869  50.8810146  43.4536891   8.6240034  51.6052471  42.4693965
   8.6442106  50.9981819  42.9650784  23.3568276  53.2525288  31.4392379
  23.6876493  53.7852929  30.8332474  23.9301364  53.3064176  32.0954330
  23.4901955  53.3394857  31.4470161  15.8968847  54.3756200  47.8320944
  15.1041827  54.6899712  48.0173563  16.0117774  54.5907668  46.9941728
  15.7964257  54.4540037  47.7359279  18.5700165  51.0990191  32.1215960
  18.6647020  51.8379485  32.5755585  17.9459009  50.6707667  32.5550524
  18.4909196  51.1451512  32.2524107  16.8252639  54.2776404  42.7706240
  17.3991501  53.6403648  42.9254804  16.7467443  54.2780486  41.9015898
  16.8985874  54.1841515  42.6652651   5.4249056  51.0565613  36.6088955
   6.0022558  50.9202064  37.2481200   4.7263117  50.6001397  36.8634539
   5.4070077  50.9687879  36.7411244  18.8223187  52.9438931  25.3552912
  18.7403349  53.0141118  26.2207899  19.4602907  53.5068675  25.1636652
  18.9043024  53.0377902  25.4542861  12.1816358  52.7099669  34.8227438
  11.9235602  51.8771404  34.7958737  12.2364841  52.9357282  33.9819938
  12.1516136  52.6197440  34.6947575  11.1551070  50.2637431  35.3092333
  10.5800661  50.4229600  35.9456294  10.7786746  49.6272840  34.8460783
  11.0153882  50.1935244  35.3346891  14.8224359  48.7360781  40.1684711
  14.4338791  48.3114998  39.5136902  14.1579057  48.9842930  40.6761738
  14.6671287  48.7099502  40.1472579   0.9007889  49.9077506  33.3236773
   0.9868141  49.5309374  34.1050303   1.5283686  49.5337952  32.8456732
   1.0064440  49.7962988  33.3682251  15.9263297  52.9659385  28.3661518
  16.7403936  53.2574278  28.2544289  15.8622438  52.3119248  27.7919811
  16.0366036  52.9124580  28.2650355  22.1472787  55.6485381  42.7791094
  21.9111425  54.8173446  42.6603154  22.7916016  55.5970989  43.3645938
  22.2067458  55.5183069  42.8476987  11.7971205  56.4380903  33.4933830
  12.4345152  56.1992650  34.0385624  12.2226277  56.6418062  32.7586991
  11.9547371  56.4331913  33.4650987   6.4883848  58.6769239  37.3768134
   6.5287993  58.9484090  36.5487914   7.0478372  59.2011147  37.7925922
   6.5767194  58.7944994  37.3160022  12.4374020  51.6583192  27.8308720
  12.8219173  51.4390899  28.5825265  12.1885641  52.4846138  27.9609796
  12.4576093  51.7481339  27.9609796  12.6042561  44.9389608  47.5471304
  12.2896002  45.7089170  47.2840866  12.2832493  44.3759864  46.9623531
  12.5101480  44.9699876  47.4212654  23.1709208  55.4329830  38.8419388
  22.8655025  56.1657887  39.2032704  22.4515423  55.0267760  38.5612174
  23.0196550  55.4811563  38.8532525  14.1792677  56.9153325  35.1727616
  14.2531685  56.7528497  36.0269466  14.9962184  57.1043515  34.9288098
  14.3109036  56.9190068  35.2625642  28.8711000  52.0722831  38.1687732
  28.8035500  52.0918790  37.2990319  28.8566662  52.9153158  38.3943403
  28.8589756  52.1996565  38.0740209   7.9398434  57.2611188  32.2022060
   7.1136552  57.5072925  32.0756339   8.0010425  57.1823269  33.0684118
   7.8272601  57.2856137  32.3111004  10.1574458  43.3280129  33.1617500
   9.2896883  43.4002729  33.2275109  10.4449662  44.1302208  33.3505475
  10.0714206  43.4574276  33.1992267  12.7197263  59.8788068  29.9041090
  13.0095561  59.4877050  29.1800316  13.4500744  60.0604773  30.3446365
  12.8704147  59.8481882  29.8623897  26.6569617  50.8467217  36.4434327
  27.2077539  50.2135286  36.6831419  26.6413733  51.3782610  37.1349831
  26.7354814  50.8316165  36.5813185  13.3092008  54.6805814  40.9894220
  12.8103702  55.3921582  41.0679109  14.1192232  55.0006481  40.9512383
  13.3548115  54.8332663  40.9950789  10.6603179  61.8555451  32.9701240
  10.4403474  61.5652805  33.7627907  10.4397701  61.1970406  32.4419152
  10.5950773  61.7155159  33.0090148   9.5720126  53.9428767  35.2356941
   9.2833374  53.3166239  35.7702668  10.4403474  53.8849055  35.3021622
   9.6580378  53.8416312  35.3247896  20.3598023  49.0863551  35.5538923
  20.0162789  48.3653886  35.9046173  20.4591066  48.8777402  34.7117281
  20.3240066  48.9487754  35.4810603  12.8271134  63.2284841  31.7531932
  13.4795192  62.6961283  31.9822958  12.1296743  62.8753493  32.1399806
  12.8201852  63.0974364  31.8444100   9.7752399  55.5824018  31.1599306
  10.5298367  55.9637057  31.3734769   9.1823012  56.0335162  31.6146003
   9.7989113  55.7052846  31.2582185  20.8211053  55.5489255  31.0962911
  21.3869085  56.2082465  31.0121454  20.1738956  55.8938953  31.5679313
  20.8089809  55.6971196  31.1535668  12.2359066  47.5386859  46.2856519
  11.4258842  47.8444638  46.1746361  12.7133753  48.2592441  46.4009103
  12.1862545  47.6901460  46.2863590  11.0950626  56.7532580  36.5339422
  10.5731379  56.8932871  37.2191286  11.4824646  55.9943244  36.7241539
  11.0754327  56.6618104  36.6640498   8.0841810  46.8038388  30.6034376
   7.7966605  46.4339659  29.8666324   8.7712278  47.2733244  30.3418081
   8.1430707  46.8185358  30.4549452  17.2917631  58.4928039  30.5199990
  17.0504307  57.7595900  30.1127055  17.4718964  59.0414896  29.8666324
  17.2825255  58.4650430  30.3630213  12.5216951  53.7836599  31.9320913
  12.3259734  54.3911333  31.3381216  12.7451297  53.0904543  31.4512587
  12.5251592  53.7714124  31.7736993  10.9195481  50.6691337  32.0501781
  11.6418133  50.8332495  31.5905587  10.4403474  51.3901001  31.9441121
  10.9559212  50.7989566  31.9667395   8.5703098  53.0749409  41.1555921
   9.0824195  53.3533662  40.5064681   8.2839441  53.8138703  41.5218734
   8.6037961  53.2251763  41.1145799  17.3258267  43.9040512  32.1626082
  18.0284620  43.7048261  31.6846040  17.0602456  43.1316455  32.4694925
  17.3904899  43.7603478  32.1371523  22.7546513  52.2123122  34.7159708
  22.6680487  52.3678548  35.5694487  22.2996993  52.8561198  34.3419113
  22.6749769  52.3298877  34.7866814   5.6570004  47.5819601  31.4519657
   5.7586141  48.3845762  31.7800633   6.4525891  47.3806937  31.1542738
   5.7897910  47.6705500  31.4555013  12.0886823  45.1675798  41.2156963
  11.8970020  45.1830932  42.0656386  12.9385419  45.3639472  41.1923617
  12.1862545  45.1990149  41.3380257   6.4733736  47.6966779  39.1940779
   6.3319228  46.8450720  39.3185287   6.7574300  47.7395440  38.3702985
   6.4941583  47.5766529  39.0908403  16.6272329  49.5333869  33.3385267
  16.3807043  49.4529620  34.1722056  16.9557452  48.7487337  33.1447795
  16.6393572  49.4060135  33.4332790  20.5220378  56.2417229  37.1272048
  20.3834737  56.9398274  37.6320791  19.7420375  56.0865885  36.7708230
  20.3863604  56.3217395  37.1498323  18.8598463  52.5413604  43.3794430
  18.8546501  51.6693421  43.3836857  19.5659457  52.7401773  42.9063886
  18.9643467  52.4417478  43.3101466  12.5869356  52.2690588  42.7508250
  12.7312732  52.8491796  42.1151360  12.9345005  52.6466885  43.4558105
  12.6596817  52.4111292  42.7607245  14.7589273  51.4680756  40.5333382
  14.0112587  51.6611771  40.1281660  14.9130799  50.6425976  40.2957503
  14.6711701  51.3745868  40.4378788  11.6597111  60.4593360  39.6169277
  11.8086675  59.8996276  38.9642682  12.4397113  60.5385361  40.0001796
  11.7971205  60.3878925  39.5766226  22.0173750  55.5995482  27.8888548
  21.6380559  54.8132620  27.8817837  21.3539996  56.1482339  27.7460192
  21.8632225  55.5640306  27.8669345  14.1850412  60.6308003  40.8953768
  14.1094083  59.9616813  41.4504556  14.1140271  61.3325791  41.4094434
  14.1631019  60.6352910  41.0530616  14.9991050  45.3631307  41.4228786
  15.4563665  46.0955281  41.5501578  15.0747379  44.9397772  42.1816041
  15.0782020  45.4088545  41.5529862   7.2424042  45.6097127  42.5118229
   6.7066231  44.9977485  42.8278997   7.3041806  46.1845263  43.1651896
   7.1719674  45.6044054  42.6553656  12.8773428  47.3533411  38.2670610
  12.0869503  47.1724871  38.5887945  13.2734051  46.5760363  38.2500904
  12.8190305  47.2120872  38.3123158  17.3639319  56.1821185  23.7077323
  18.1312304  56.2421310  23.2983175  16.9170628  55.6101627  23.2233642
  17.4112746  56.1057761  23.5755034  18.2617115  54.9875841  35.9930056
  17.5862116  54.7561073  36.4943443  18.2709491  54.3797024  35.3672161
  18.1635619  54.8634766  35.9746208  15.3911259  49.8293670  42.7494109
  15.3270400  50.6903626  42.6214245  15.5308446  49.5125663  41.9489660
  15.4026729  49.9093837  42.6122321  20.2633849  57.8440973  28.2240234
  20.3453687  58.6507960  27.9001684  20.7483591  57.8636933  28.9481007
  20.3471007  57.9661636  28.2827132  14.0730353  52.5225809  36.8910311
  13.6492602  52.7230308  36.1549330  13.8975208  51.6754657  37.0034611
  13.9841233  52.4274591  36.7984002  13.5742046  64.0376322  39.3531769
  14.0637976  63.3387112  39.1707433  13.0026278  63.7400192  39.9407826
  13.5626576  63.8902546  39.4132810   9.3612798  53.0177861  32.3238284
   9.5177417  52.9524664  33.1794276   9.7013391  53.7926413  32.1116964
   9.4346032  53.1227059  32.4192878  15.8991942  52.3935744  31.1931647
  16.4407488  51.8906125  31.6570268  16.2138501  52.3400939  30.3821132
  16.0256339  52.3115165  31.1415459  19.7709050  56.6038392  48.3058559
  20.5843915  56.3323541  48.4663692  19.6104016  56.3045932  47.5018755
  19.8678998  56.5193318  48.2103965  14.0678392  57.7853096  28.4771675
  14.1371212  56.9267634  28.6164676  14.8466847  58.0024977  28.1490700
  14.1931242  57.6905960  28.4488833  18.4585879  60.2090797  32.6908169
  18.0665671  59.9057512  31.9731035  18.6138952  61.0459887  32.5013122
  18.4239469  60.2874634  32.5564666   5.9347059  50.2012811  32.6399051
   6.3146024  50.6197356  31.9759319   5.3602424  50.7826267  32.9467895
   5.9058384  50.3490670  32.5875792  19.2120300  48.8961114  42.1837255
  18.3996981  48.5887004  42.2650428  19.6710234  48.4160114  42.7479967
  19.1600684  48.7797606  42.2791849  18.6225554  56.7740786  32.6314199
  18.2640209  56.9455429  33.4078232  18.1364265  57.2353992  32.0742198
  18.4984251  56.8679757  32.6639468  13.4113920  52.4539951  25.1714434
  13.7006444  53.2304834  25.4458008  13.4985718  51.9428683  25.8728933
  13.4668176  52.4931870  25.3156931  16.3073807  50.3021186  46.9665957
  16.7773438  50.9263302  47.3533831  16.3535687  49.6338161  47.5259172
  16.3841683  50.2955866  47.1066029  13.4645081  42.4078213  37.6914761
  12.9483569  41.7158404  37.8166340  12.9039010  43.0748990  37.6377360
  13.3051594  42.4041471  37.7020827  19.7830294  57.6644682  43.5781400
  20.4210014  57.1704878  43.2443856  19.1404385  57.5922082  42.9933627
  19.7824520  57.5803691  43.4423755  21.5087294  49.5133828  38.1447316
  21.0814902  49.4260177  37.3895415  20.8713347  49.6211603  38.7302160
  21.3516901  49.5166488  38.1192757  15.0008371  44.6209353  44.0844285
  15.8281800  44.3494502  44.1402899  15.0216217  45.4170195  44.4408103
  15.1261221  44.6989107  44.1459468  19.8384550  58.3564490  40.2186757
  20.6276928  58.0053555  40.3388838  20.0128148  59.1700879  39.9563391
  19.9804832  58.4250347  40.1974625   9.5777861  51.7673216  37.2714546
   8.7365867  51.6677090  37.4793439   9.7867868  52.5368696  37.6228866
   9.4842553  51.8665259  37.3541860   7.0553427  49.3892753  35.0999296
   6.6610125  49.4635765  34.3249406   6.4993544  49.7750699  35.6507658
   6.9156240  49.4574528  35.0666956  13.3894525  49.6954615  36.5212143
  13.0857663  49.1410603  37.1222551  12.6873946  49.8746825  36.0340177
  13.2410735  49.6399398  36.5381849  12.4460623  47.0055135  31.0856845
  12.7220357  46.2874048  30.6734412  13.0459292  47.6040055  30.8777951
  12.5753887  46.9875506  30.9937606  11.4512876  56.9104336  41.2284241
  11.3433231  56.9206398  42.0946299  11.6608658  57.7359116  41.0389195
  11.4662987  57.0345411  41.3288333  15.9471143  44.6768652  29.3603440
  16.4014890  44.8479213  30.0851285  16.4211189  44.0636763  28.9601216
  16.0839463  44.6119538  29.4077202   9.4686668  54.1616978  38.6906179
   8.8774602  54.8026477  38.6609194  10.2307692  54.5854596  38.6637478
   9.4934929  54.3192817  38.6821326   9.8647291  45.3218976  39.3574196
  10.3248773  45.3957906  40.0949320   9.9103398  46.1200230  39.0074017
   9.9397847  45.4513123  39.4146953  11.5130641  45.9885671  43.9246223
  11.1216206  45.3419018  44.3602001  11.6816504  46.5797106  44.5440479
  11.4801551  45.9799939  44.0808929  25.5877090  53.9922748  39.6883457
  25.6460214  54.4409397  40.4343433  24.9543558  54.4021561  39.2513537
  25.5028385  54.1196483  39.7336005  19.2276185  59.6126290  36.1238203
  19.0295873  60.1017104  35.4294414  18.6063896  59.8167531  36.7022336
  19.1063749  59.7142828  36.1061426  13.2884163  51.3811187  30.4648447
  14.0326208  51.7685463  30.7031397  13.4344859  50.5368612  30.6288935
  13.4194748  51.3141660  30.5242417   6.6535069  48.9508167  41.7325912
   7.5160682  48.8503876  41.6463242   6.3226852  48.3702876  41.1711484
   6.7320265  48.8499793  41.6371318  22.5398769  52.0139036  37.7749147
  22.2996992  51.1745451  37.7791574  23.0190777  52.0939202  38.4989921
  22.5750953  51.9020435  37.8823949  18.2045539  47.8473215  29.4268120
  17.6768557  47.9301959  28.7373829  18.6641247  48.5891086  29.4232765
  18.1947389  47.9693877  29.3242816  21.1449987  53.1790442  41.6583451
  21.8684185  52.7262969  41.4794471  20.8799949  53.4595108  40.8755779
  21.2131260  53.1541411  41.5162167  10.0136855  47.7750616  38.3936331
   9.3889925  47.7869008  37.7862283   9.6782450  48.2510791  39.0427571
   9.8722347  47.8469133  38.3992899  10.1978604  46.1175734  24.4509016
   9.8491408  46.7695459  24.9140565   9.7175049  46.1032847  23.7232887
  10.0748848  46.2118788  24.4120107   6.7262531  55.8351076  39.8340095
   6.1962455  55.1443515  39.8835070   6.9987624  55.8261261  39.0052803
   6.6887253  55.7318208  39.7187511  17.7582621  56.4176778  28.5577777
  18.4816820  56.8834891  28.4142351  17.3183212  56.4850388  27.8075374
  17.7998313  56.4960615  28.4262559  16.9268776  53.2774320  39.8078466
  16.3125769  52.7332371  40.1027102  17.4436061  52.7638557  39.3284283
  16.9124439  53.1210729  39.7802695  16.1665073  54.3478590  37.5422765
  15.7392681  53.7228309  37.1088200  16.1590018  54.0653512  38.3681772
  16.1024214  54.2131371  37.6002593   9.2827600  49.3843764  40.6111199
   9.4421087  48.6287088  41.0162921   9.1020494  49.9334703  41.2651937
   9.2792959  49.3537577  40.7673905   2.0058373  52.5078840  37.1908443
   1.9001822  52.4625684  36.3260527   1.2558593  52.8532621  37.4722728
   1.8793976  52.5519748  37.1045773  10.7752105  43.9518163  37.1371043
  10.8150477  44.4527370  37.8505751   9.9501770  44.0428557  36.8676966
  10.6591631  44.0399980  37.2021582  12.9581718  53.5178903  45.2391338
  12.1077349  53.6550618  45.3748983  13.1209846  52.7842681  45.6839040
  12.8565582  53.4293004  45.3246937  12.1966469  50.4678673  39.4344942
  11.3658398  50.6352491  39.2280190  12.1417986  50.0914624  40.2193828
  12.0655883  50.4368404  39.5193470  10.0050252  43.9587566  45.0701353
  10.6302955  43.4149699  45.3430785   9.5500732  43.4782484  44.5009143
  10.0298512  43.8077047  45.0262947  10.5702512  48.7434265  29.9635060
  10.7105473  49.2406729  30.6663701  11.0685045  48.0420559  30.1049274
  10.6643593  48.7136243  30.0886639  10.6002735  49.6101376  27.2927637
  11.2347814  50.2061801  27.2277099  10.6828346  49.3104833  28.1073507
  10.7059286  49.6542284  27.4030723  23.5785301  52.1416853  40.1614001
  24.1703141  52.7814104  40.1932199  24.0144295  51.4439890  40.4506068
  23.7303732  52.1335203  40.2094834  12.1781718  45.5415351  27.2673079
  12.4997559  45.0618434  26.6132341  12.4408661  46.3514997  27.0763891
  12.2647743  45.5905249  27.1428571  15.4078690  56.5634225  40.7871895
  14.9003781  57.1170072  41.2312525  15.1105337  56.6242515  39.9690669
  15.2883575  56.6540537  40.7320352   7.1055723  51.8069216  30.5617183
   7.6147952  52.4033724  30.9428488   7.5789995  51.5395190  29.8793603
   7.2499098  51.8555032  30.5171706  18.0186471  60.4797483  28.7175838
  17.3015780  60.3058345  28.2523076  18.6693208  60.2450055  28.1851324
  18.0088321  60.4193276  28.5705056  16.0135095  41.4002645  33.0387135
  15.3703413  41.2500291  33.6072273  15.6734502  41.1544990  32.2736240
  15.8680173  41.3414767  33.0090150  20.6034442  49.3562072  32.4617144
  19.9325632  49.8991774  32.3330209  21.2974192  49.8256927  32.2198838
  20.6063309  49.5060343  32.4072671  14.6521176  61.4958784  37.6928902
  14.4286830  60.7377613  38.0612928  14.1631019  61.5256805  36.9709342
  14.5464625  61.3881008  37.6405643   9.4646254  48.4425475  33.4290363
   8.7458244  48.8589608  33.6963227   9.8358617  49.0079714  32.8782001
   9.4138186  48.5874756  33.3873170  18.7645835  49.0753324  39.3192359
  18.7443763  48.8936619  40.1727138  18.8125036  49.9465342  39.2951943
  18.7680476  49.1769862  39.4415654  16.7092165  55.6640516  45.2440836
  16.6688020  55.0190193  44.6585991  17.5215483  55.6077133  45.5566248
  16.8235319  55.5599483  45.2037785  13.2999633  61.7159242  35.1465986
  12.8860031  61.0533372  34.7569828  13.9847007  61.8637101  34.6261681
  13.3398004  61.6399900  35.0122484  16.6664927  60.8749327  35.8989603
  16.2681210  60.9851597  35.1310423  16.0516146  61.0831393  36.4816163
  16.5163816  60.9222895  35.8720902  15.2392829  47.4823475  28.7663743
  14.6457668  47.8040471  28.2148310  15.2768106  46.6364570  28.5584849
  15.1567218  47.4047803  28.6546514  18.1150645  47.4402979  32.1965493
  17.8864338  47.4635681  31.3543851  18.3748722  46.6160446  32.3160504
  18.1196833  47.3219059  32.0890691  12.3969874  49.2937452  41.7990593
  11.8848777  48.6858635  42.1575625  12.2249370  50.0094045  42.2664569
  12.2959511  49.3100752  41.9206817   7.2435588  47.7375028  44.4492955
   7.0738179  48.3976403  43.9041162   6.8001538  47.9481589  45.1705444
   7.1534922  47.8661010  44.4754584  11.1695408  45.9779526  33.4919689
  11.6452774  46.3396606  32.8569870  10.6684007  46.6335993  33.7719831
  11.1660767  46.1273714  33.4396430  16.2738944  47.2161697  44.2392849
  16.8310374  46.9875507  43.6071314  15.9500009  47.9767363  43.9628061
  16.3085354  47.2945534  44.1049346   4.1437653  50.6421893  39.7081445
   3.5964372  49.9722539  39.8262313   4.9330031  50.2751741  39.7724912
   4.1789837  50.4886880  39.7350145  13.9922061  50.3029350  45.2044856
  14.7433388  50.6181027  45.5184410  14.1844638  50.1008521  44.3778778
  14.1313476  50.3196732  45.1288252  13.2122061  48.1220725  26.8593073
  13.5921026  48.1400355  26.0744187  12.4714657  48.5674714  26.7383920
  13.1590899  48.1902500  26.7256641  20.8407352  46.4302917  32.4468651
  20.8401578  46.2751573  33.3052928  20.6363532  47.2765904  32.3910037
  20.8107129  46.5323537  32.5656591   2.9024622  49.8542701  36.8627468
   2.7246384  49.4019310  37.5882383   2.6143645  50.6568862  37.0465945
   2.8337576  49.9065259  36.9970971  18.5648204  51.1100418  36.1004858
  19.0601869  50.3923414  36.0608878  17.7547979  50.8071216  35.9859345
  18.5192097  50.9598065  36.0778584  14.0106815  54.9598232  28.2501863
  13.2018138  54.6364905  28.2035172  14.5181724  54.2531454  28.1830111
  13.9656482  54.8079548  28.2332157   4.6397092  52.3870425  33.9749227
   3.7742612  52.3756115  33.8631998   4.7395908  52.2000648  34.8220366
   4.5271259  52.3576486  34.0838171  20.6300022  53.8604106  38.7881987
  21.0555094  53.3378528  38.2352412  20.2656942  54.4584943  38.2670610
  20.6386625  53.8714333  38.6290997  10.2654102  62.1568323  37.5479332
  10.5800661  62.9704712  37.5557114  10.6747516  61.7718542  38.2161492
  10.3722200  62.2197026  37.6483424  17.2178622  57.5738370  35.1183144
  17.6889800  58.2878633  35.2873130  17.5538800  56.9737120  35.6543014
  17.3373737  57.5909835  35.2215520  19.3055606  59.1839684  47.2975217
  19.4152572  58.3948244  47.6531964  19.6346503  59.0945620  46.4949555
  19.3708012  59.0545537  47.2317607  14.1348117  42.3465841  42.0741239
  14.2676022  41.5496834  42.4022215  14.5193270  42.8732244  42.6539515
  14.2104446  42.3065758  42.2084742  17.8552568  57.3656304  41.8810837
  17.3073514  56.7414188  41.6130902  18.3165597  57.5550576  41.1654916
  17.8419778  57.3015355  41.7361268  13.2041232  44.3482254  29.5420704
  14.0256926  44.5180567  29.3002399  12.7410883  44.5029515  28.8187002
  13.2572394  44.3963987  29.3992348  11.7936564  42.3425016  40.3219133
  12.3380977  42.0016143  40.9123475  11.8473499  43.2010477  40.4640418
  11.8825683  42.4180275  40.4301006   7.6067122  56.1041432  37.1957941
   8.2111980  56.0637266  36.5671762   7.3994435  56.9512584  37.2261997
   7.6656020  56.2229434  37.1074057  17.4210895  58.3707377  38.4120178
  18.2409268  58.2270343  38.6736473  17.1404972  58.9953576  38.9536616
  17.5007638  58.4417729  38.5308118   2.8418405  55.0876049  37.0656864
   2.7442683  54.2772321  37.3746921   3.6247274  55.0667843  36.6803132
   2.9434541  54.9643140  37.0543727  33.8924545  66.0272229  31.3763055
  33.8618549  66.8816865  31.5481324  34.4905894  65.7267521  31.9349198
  33.9761703  66.1088725  31.4837857  27.0924230  65.1147880  36.1315985
  26.2362125  65.2756378  36.1825102  27.1391883  64.2439944  36.1521046
  26.9723341  65.0098682  36.1422051  30.4017946  71.3834405  45.7376441
  31.1084714  70.8886436  45.8663376  30.5905882  71.8243487  45.0079099
  30.5345852  71.3752756  45.6485487  29.9376051  67.1739924  38.7747637
  30.4832011  67.8525010  38.8341606  29.8792927  67.0327385  37.9149218
  30.0091965  67.2531925  38.6559697  31.7141119  68.6024531  29.6481364
  31.5980645  69.3532217  30.0773503  32.5097006  68.3448484  29.8977451
  31.8145709  68.6759378  29.7485456  18.5505257  62.8535007  36.6852630
  17.9310289  62.2627654  36.5162645  18.4489121  63.4446442  36.0516954
  18.4442933  62.8539089  36.5657620  25.6473153  64.5934549  31.0185094
  26.3453318  64.7722676  31.5106557  25.9625486  64.0704888  30.3955483
  25.7968490  64.5428321  30.9987104  18.2774390  66.3987289  38.9296199
  18.1533087  66.9849734  39.5646018  18.9292675  65.9047484  39.2308474
  18.3548040  66.4126093  39.0682129  23.3032731  69.5749006  38.2083711
  23.9481734  69.0821449  37.8894659  23.5434508  69.7173792  39.0349789
  23.4343316  69.5226448  38.2833244  23.8200017  59.9626945  35.1006368
  23.4903347  60.4138089  34.4310067  23.1445018  59.8843109  35.6479375
  23.6710453  60.0178081  35.0829591  29.4370425  69.3332175  27.9595654
  29.3521720  70.1893142  28.1045223  29.9254808  69.0576499  28.6277813
  29.4959322  69.4189497  28.0797736  31.0276424  55.9512468  33.3455979
  30.7129865  56.6415947  33.7776401  30.5103366  55.8957251  32.6441480
  30.9040895  56.0447357  33.3052928  30.3688858  65.9516969  29.4593389
  29.8400330  66.1676603  30.1190696  30.8913878  66.6453108  29.3794359
  30.3677311  66.0860106  29.5448989  35.8236911  71.5263274  34.8326434
  34.9934614  71.7373917  34.9959850  35.7746163  70.7000328  34.5568717
  35.6943646  71.4352880  34.8163799  26.7165680  66.0945838  26.7369778
  26.9561684  66.3023822  25.9245121  27.0381521  65.2903347  26.8458723
  26.8002838  66.0059939  26.6330331  22.0255971  58.0239234  30.5829316
  22.7801939  58.3917551  30.3446366  21.8483505  58.3978788  31.3508496
  22.1110449  58.1337422  30.6614204  35.3190869  64.1733674  38.6276855
  34.4819290  64.2435861  38.8624450  35.2879100  64.1758169  37.7551158
  35.1909152  64.1843901  38.5336403  21.7155598  66.3166710  44.3425224
  21.8876102  66.2072605  45.1910505  22.2524956  66.9621115  44.1056416
  21.8200602  66.3958712  44.4330321  20.3813035  60.4309553  27.2807429
  20.1988609  60.6481434  26.4548422  21.2438648  60.5448566  27.3366043
  20.4817625  60.4799451  27.1661916  30.0421055  68.3689351  34.2188747
  30.7978570  68.8020865  34.2577655  30.1483380  67.7194121  34.7923383
  30.1691226  68.3366835  34.3086772  33.0801226  72.1962628  34.9691150
  32.6436458  72.1999371  35.7250121  32.7464142  72.8768127  34.5370727
  32.9663846  72.2975084  35.0171982  32.9998709  59.2376456  37.2120578
  33.6424618  59.3074561  37.7982493  33.2521730  58.5705679  36.7100120
  33.1320841  59.1502805  37.2247857  19.9275062  63.7083725  25.7929902
  19.2133239  63.4221905  26.2052334  20.4119031  64.0480351  26.4336289
  19.8934426  63.7165375  25.9485537  20.7715922  62.4477019  41.8245152
  20.0787718  61.9773999  42.0705883  21.3876249  62.2215324  42.3986859
  20.7600452  62.3444151  41.9454304  36.2145572  68.9143548  33.8610787
  36.8762007  68.3534217  33.7606695  35.5736984  68.4195579  34.1863478
  36.2174440  68.7579957  33.8943127  32.5010403  69.9308930  33.6022776
  32.7365992  70.0754129  32.7749626  32.6499967  70.6951338  33.9954289
  32.5576206  70.0647985  33.5386380  19.4956481  66.4142423  42.9671997
  20.2196453  66.3995454  43.4536891  19.5972617  67.1237779  42.4693965
  19.6174690  66.5167127  42.9650784  34.3300860  68.7710596  31.4392379
  34.6609077  69.3038237  30.8332474  34.9033948  68.8249484  32.0954330
  34.4634539  68.8580165  31.4470161  26.8701430  69.8941508  47.8320944
  26.0774411  70.2085020  48.0173563  26.9850357  70.1092976  46.9941728
  26.7696841  69.9725345  47.7359279  29.5432749  66.6175499  32.1215960
  29.6379603  67.3564793  32.5755585  28.9191593  66.1892975  32.5550524
  29.4641779  66.6636820  32.2524107  27.7985223  69.7961712  42.7706240
  28.3724085  69.1588956  42.9254804  27.7200027  69.7965794  41.9015898
  27.8718458  69.7026823  42.6652651  16.3981639  66.5750921  36.6088955
  16.9755142  66.4387372  37.2481200  15.6995701  66.1186705  36.8634539
  16.3802661  66.4873187  36.7411244  29.7955770  68.4624239  25.3552912
  29.7135933  68.5326426  26.2207899  30.4335491  69.0253983  25.1636652
  29.8775608  68.5563210  25.4542861  23.1548942  68.2284977  34.8227438
  22.8968186  67.3956712  34.7958737  23.2097424  68.4542590  33.9819938
  23.1248719  68.1382748  34.6947575  28.2349992  60.3313428  34.9231531
  27.5306318  59.8422613  35.0815450  28.2834966  60.3435902  34.0519975
  28.1380043  60.2603075  34.8170870  22.1283654  65.7822739  35.3092333
  21.5533245  65.9414908  35.9456294  21.7519330  65.1458148  34.8460783
  21.9886466  65.7120552  35.3346891  25.7956942  64.2546089  40.1684711
  25.4071375  63.8300306  39.5136902  25.1311641  64.5028238  40.6761738
  25.6403870  64.2284810  40.1472579  35.4380211  64.0121093  32.9432541
  35.1816776  63.2001035  32.7530424  36.2809525  64.0198660  32.7162728
  35.5246237  63.8933091  32.8817358  11.8740473  65.4262814  33.3236773
  11.9600724  65.0494682  34.1050303  12.5016270  65.0523260  32.8456732
  11.9797024  65.3148296  33.3682251  29.6183304  57.9520717  37.6808695
  29.9993816  57.2698888  38.0676570  28.8146588  57.6630319  37.4984360
  29.5559766  57.8087766  37.7112751  26.8995881  68.4844693  28.3661518
  27.7136519  68.7759586  28.2544289  26.8355022  67.8304556  27.7919811
  27.0098620  68.4309888  28.2650355  33.1205371  71.1670689  42.7791094
  32.8844008  70.3358754  42.6603154  33.7648600  71.1156296  43.3645938
  33.1800041  71.0368377  42.8476987  23.4106604  67.1768500  27.8308720
  23.7951757  66.9576207  28.5825265  23.1618224  68.0031446  27.9609796
  23.4308676  67.2666647  27.9609796  23.5775144  60.4574916  47.5471304
  23.2628585  61.2274478  47.2840866  23.2565077  59.8945172  46.9623531
  23.4834063  60.4885184  47.4212654  34.1441791  70.9515138  38.8419388
  33.8387608  71.6843195  39.2032704  33.4248007  70.5453068  38.5612174
  33.9929134  70.9996871  38.8532525  39.8443584  67.5908139  38.1687732
  39.7768084  67.6104098  37.2990319  39.8299246  68.4338466  38.3943403
  39.8322340  67.7181873  38.0740209  21.1307041  58.8465437  33.1617500
  20.2629467  58.9188037  33.2275109  21.4182246  59.6487516  33.3505475
  21.0446789  58.9759584  33.1992267  30.2539930  58.9943296  41.4928822
  30.9993522  58.8053107  41.0792247  29.8377235  59.5201534  40.9342678
  30.3024904  59.0445442  41.3493395  37.6302201  66.3652525  36.4434327
  38.1810122  65.7320594  36.6831419  37.6146316  66.8967918  37.1349831
  37.7087397  66.3501473  36.5813185  31.3330607  64.6048859  35.5538923
  30.9895373  63.8839194  35.9046173  31.4323650  64.3962710  34.7117281
  31.2972650  64.4673062  35.4810603  31.7943636  71.0674563  31.0962911
  32.3601669  71.7267773  31.0121454  31.1471540  71.4124261  31.5679313
  31.7822393  71.2156504  31.1535668  23.2091650  63.0572167  46.2856519
  22.3991425  63.3629946  46.1746361  23.6866336  63.7777749  46.4009103
  23.1595128  63.2086768  46.2863590  19.0574393  62.3223696  30.6034376
  18.7699189  61.9524967  29.8666324  19.7444862  62.7918552  30.3418081
  19.1163291  62.3370666  30.4549452  23.4949535  69.3021907  31.9320913
  23.2992318  69.9096641  31.3381216  23.7183880  68.6089851  31.4512587
  23.4984176  69.2899432  31.7736993  21.8928065  66.1876645  32.0501781
  22.6150717  66.3517803  31.5905587  21.4136058  66.9086309  31.9441121
  21.9291796  66.3174874  31.9667395  29.8521572  62.5240443  37.4298466
  29.0132673  62.5501722  37.1936729  29.9225940  63.1711179  38.0103813
  29.7389966  62.6236569  37.4807583  28.2990851  59.4225820  32.1626082
  29.0017204  59.2233569  31.6846040  28.0335039  58.6501763  32.4694925
  28.3637483  59.2788786  32.1371523  33.7279096  67.7308430  34.7159708
  33.6413071  67.8863856  35.5694487  33.2729576  68.3746506  34.3419113
  33.6482353  67.8484185  34.7866814  16.6302588  63.1004909  31.4519657
  16.7318724  63.9031070  31.7800633  17.4258475  62.8992245  31.1542738
  16.7630494  63.1890808  31.4555013  23.0619407  60.6861106  41.2156963
  22.8702604  60.7016240  42.0656386  23.9118003  60.8824780  41.1923617
  23.1595129  60.7175457  41.3380257  17.4466320  63.2152087  39.1940779
  17.3051812  62.3636028  39.3185287  17.7306883  63.2580748  38.3702985
  17.4674166  63.0951837  39.0908403  27.6004912  65.0519177  33.3385267
  27.3539627  64.9714928  34.1722056  27.9290035  64.2672645  33.1447795
  27.6126156  64.9245443  33.4332790  31.4952961  71.7602537  37.1272048
  31.3567320  72.4583582  37.6320791  30.7152959  71.6051193  36.7708230
  31.3596188  71.8402703  37.1498323  29.8331046  68.0598912  43.3794430
  29.8279085  67.1878728  43.3836857  30.5392040  68.2587081  42.9063886
  29.9376050  67.9602786  43.3101466  23.5601940  67.7875896  42.7508250
  23.7045315  68.3677104  42.1151360  23.9077588  68.1652193  43.4558105
  23.6329401  67.9296600  42.7607245  25.7321857  66.9866064  40.5333382
  24.9845171  67.1797079  40.1281660  25.8863382  66.1611284  40.2957503
  25.6444285  66.8931176  40.4378788  32.9906334  71.1180790  27.8888548
  32.6113143  70.3317928  27.8817837  32.3272579  71.6667647  27.7460192
  32.8364809  71.0825614  27.8669345  25.9723634  60.8816615  41.4228786
  26.4296248  61.6140589  41.5501578  26.0479963  60.4583080  42.1816041
  26.0514604  60.9273853  41.5529862  18.2156625  61.1282435  42.5118229
  17.6798815  60.5162793  42.8278997  18.2774390  61.7030571  43.1651896
  18.1452258  61.1229362  42.6553656  30.4450960  54.0606490  35.2922629
  30.5634528  54.5182953  34.5589931  30.2713136  53.2551751  35.0058846
  30.4370131  54.0100262  35.1423562  23.8506012  62.8718719  38.2670610
  23.0602087  62.6910179  38.5887945  24.2466635  62.0945671  38.2500904
  23.7922888  62.7306180  38.3123158  28.3371903  71.7006493  23.7077323
  29.1044888  71.7606618  23.2983175  27.8903212  71.1286935  23.2233642
  28.3845330  71.6243069  23.5755034  29.2349698  70.5061149  35.9930056
  28.5594700  70.2746381  36.4943443  29.2442074  69.8982332  35.3672161
  29.1368203  70.3820074  35.9746208  26.3643842  65.3478978  42.7494109
  26.3002983  66.2088934  42.6214245  26.5041030  65.0310971  41.9489660
  26.3759312  65.4279145  42.6122321  25.0462936  68.0411117  36.8910311
  24.6225185  68.2415616  36.1549330  24.8707791  67.1939965  37.0034611
  24.9573817  67.9459899  36.7984002  26.8724526  67.9121052  31.1931647
  27.4140071  67.4091433  31.6570268  27.1871085  67.8586247  30.3821132
  26.9988923  67.8300473  31.1415459  30.7441633  72.1223700  48.3058559
  31.5576498  71.8508849  48.4663692  30.5836599  71.8231240  47.5018755
  30.8411582  72.0378626  48.2103965  28.0213795  62.8057357  41.2453948
  28.2355765  62.1668271  40.6917302  27.4047694  63.2503181  40.8161809
  27.9619124  62.7767501  41.1004379  16.9079643  65.7198119  32.6399051
  17.2878607  66.1382664  31.9759319  16.3335007  66.3011575  32.9467895
  16.8790967  65.8675978  32.5875792  30.1852883  64.4146422  42.1837255
  29.3729565  64.1072312  42.2650428  30.6442818  63.9345422  42.7479967
  30.1333268  64.2982914  42.2791849  27.4128524  55.9157292  36.2341291
  26.5422082  55.8896014  36.1874600  27.6668865  55.7434485  35.4167136
  27.3222084  55.8867436  36.1061427  24.3846503  67.9725259  25.1714434
  24.6739028  68.7490142  25.4458008  24.4718302  67.4613991  25.8728933
  24.4400759  68.0117178  25.3156931  27.2806391  65.8206493  46.9665957
  27.7506022  66.4448610  47.3533831  27.3268271  65.1523469  47.5259172
  27.3574266  65.8141174  47.1066029  24.4377664  57.9263521  37.6914761
  23.9216153  57.2343712  37.8166340  23.8771593  58.5934298  37.6377360
  24.2784177  57.9226779  37.7020827  26.5069898  58.4656481  39.5207613
  26.1201651  58.4905512  40.3021143  26.0202835  57.8998160  39.0682130
  26.3782407  58.3852232  39.5695517  32.4819877  65.0319136  38.1447316
  32.0547485  64.9445484  37.3895415  31.8445930  65.1396911  38.7302160
  32.3249484  65.0351796  38.1192757  26.1727039  55.3523466  41.8117873
  26.8020157  55.8883766  41.5338944  26.3412902  55.2600825  42.6631439
  26.2904834  55.4184829  41.8966401  25.9740954  60.1394661  44.0844285
  26.8014384  59.8679810  44.1402899  25.9948800  60.9355503  44.4408103
  26.0993804  60.2174415  44.1459468  20.5510444  67.2858524  37.2714546
  19.7098451  67.1862398  37.4793439  20.7600452  68.0554004  37.6228866
  20.4575137  67.3850567  37.3541860  18.0286011  64.9078061  35.0999296
  17.6342709  64.9821073  34.3249406  17.4726128  65.2936007  35.6507658
  17.8888823  64.9759836  35.0666956  29.6650958  57.8859355  34.7803175
  29.8700551  57.8181663  35.6260172  29.3377382  58.6918176  34.7124353
  29.6466206  57.9945295  34.8962830  24.3627109  65.2139923  36.5212143
  24.0590247  64.6595911  37.1222551  23.6606530  65.3932133  36.0340177
  24.2143319  65.1584705  36.5381849  23.4193206  62.5240443  31.0856845
  23.6952940  61.8059355  30.6734412  24.0191875  63.1225363  30.8777951
  23.5486471  62.5060814  30.9937606  32.9184646  58.4391119  34.2605941
  32.3058959  58.9261521  34.6459672  33.0148820  57.7634610  34.8043592
  32.8422543  58.4109428  34.3984799  26.9203727  60.1953960  29.3603440
  27.3747473  60.3664521  30.0851285  27.3943772  59.5822071  28.9601216
  27.0572047  60.1304846  29.4077202  20.8379875  60.8404284  39.3574196
  21.2981356  60.9143213  40.0949320  20.8835982  61.6385538  39.0074017
  20.9130430  60.9698431  39.4146953  22.4863225  61.5070979  43.9246223
  22.0948790  60.8604326  44.3602001  22.6549087  62.0982414  44.5440479
  22.4534135  61.4985247  44.0808929  36.5609674  69.5108056  39.6883457
  36.6192797  69.9594705  40.4343433  35.9276141  69.9206869  39.2513537
  36.4760969  69.6381791  39.7336005  24.2616747  66.8996495  30.4648447
  25.0058792  67.2870771  30.7031397  24.4077443  66.0553920  30.6288935
  24.3927332  66.8326967  30.5242417  26.1796322  58.6946754  35.4980309
  25.3332367  58.8669561  35.3721658  26.1767454  57.8896097  35.8346137
  26.0543472  58.6007783  35.5291436  27.2494622  62.4721968  36.3642367
  26.7754577  61.9463730  36.8747677  27.6212758  61.9251441  35.7957228
  27.2344511  62.3137965  36.3557514  17.6267653  64.4693475  41.7325912
  18.4893266  64.3689184  41.6463242  17.2959436  63.8888184  41.1711484
  17.7052849  64.3685101  41.6371318  33.5131353  67.5324344  37.7749147
  33.2729576  66.6930759  37.7791574  33.9923360  67.6124510  38.4989921
  33.5483537  67.4205743  37.8823949  29.1778122  63.3658523  29.4268120
  28.6501141  63.4487267  28.7373829  29.6373830  64.1076394  29.4232765
  29.1679973  63.4879185  29.3242816  35.5136540  64.3125801  35.7278406
  35.2746310  64.2721635  34.8899191  35.6770441  65.1596953  35.8544127
  35.5026843  64.4317886  35.6231888  32.1182570  68.6975750  41.6583451
  32.8416769  68.2448277  41.4794471  31.8532532  68.9780416  40.8755779
  32.1863843  68.6726719  41.5162167  20.9869439  63.2935924  38.3936331
  20.3622509  63.3054316  37.7862283  20.6515033  63.7696099  39.0427571
  20.8454930  63.3654441  38.3992899  21.1711187  61.6361042  24.4509016
  20.8223992  62.2880767  24.9140565  20.6907633  61.6218155  23.7232887
  21.0481431  61.7304096  24.4120107  27.9001360  68.7959628  39.8078466
  27.2858353  68.2517679  40.1027102  28.4168645  68.2823865  39.3284283
  27.8857022  68.6396037  39.7802695  27.1397657  69.8663898  37.5422765
  26.7125265  69.2413617  37.1088200  27.1322601  69.5838820  38.3681772
  27.0756798  69.7316679  37.6002593  20.2560184  64.9029071  40.6111199
  20.4153671  64.1472396  41.0162921  20.0753078  65.4520011  41.2651937
  20.2525543  64.8722885  40.7673905  28.1980487  57.0690307  41.1661988
  27.7021048  57.2653981  40.4753555  28.9549549  57.4682975  40.9950790
  28.2367312  57.1568041  41.0382125  25.4683367  60.7432653  37.7565299
  25.4925854  60.2092765  37.0678079  25.7194840  60.2349962  38.4190890
  25.5093285  60.5893557  37.7529944  21.7484689  59.4703471  37.1371043
  21.7883060  59.9712678  37.8505751  20.9234353  59.5613865  36.8676966
  21.6324215  59.5585288  37.2021582  23.9314302  69.0364211  45.2391338
  23.0809932  69.1735925  45.3748983  24.0942429  68.3027989  45.6839040
  23.8298165  68.9478312  45.3246937  23.1699052  65.9863981  39.4344942
  22.3390982  66.1537799  39.2280190  23.1150569  65.6099932  40.2193828
  23.0388467  65.9553712  39.5193470  20.9782835  59.4772874  45.0701353
  21.6035539  58.9335007  45.3430785  20.5233315  58.9967792  44.5009143
  21.0031096  59.3262355  45.0262947  21.5435096  64.2619573  29.9635060
  21.6838057  64.7592037  30.6663701  22.0417629  63.5605867  30.1049274
  21.6376177  64.2321551  30.0886639  21.5735318  65.1286684  27.2927637
  22.2080398  65.7247109  27.2277099  21.6560929  64.8290141  28.1073507
  21.6791869  65.1727592  27.4030723  34.5517884  67.6602161  40.1614001
  35.1435724  68.2999412  40.1932199  34.9876879  66.9625198  40.4506068
  34.7036315  67.6520511  40.2094834  23.1514301  61.0600659  27.2673079
  23.4730142  60.5803742  26.6132341  23.4141245  61.8700305  27.0763891
  23.2380327  61.1090557  27.1428571  28.5473456  60.4472853  39.6296558
  28.9728528  59.9945379  39.0180084  27.9330449  59.8932924  39.9061345
  28.5202102  60.2986829  39.5801583  18.0788306  67.3254524  30.5617183
  18.5880536  67.9219032  30.9428488  18.5522579  67.0580498  29.8793603
  18.2231682  67.3740340  30.5171706  31.5767025  64.8747380  32.4617144
  30.9058215  65.4177082  32.3330209  32.2706776  65.3442235  32.2198838
  31.5795893  65.0245651  32.4072671  31.7395153  61.3303263  35.3707517
  32.0922763  60.9032986  36.0453316  30.8809954  61.2454107  35.5008593
  31.6644598  61.2548004  35.4902527  20.4378838  63.9610783  33.4290363
  19.7190827  64.3774915  33.6963227  20.8091200  64.5265022  32.8782001
  20.3870770  64.1060064  33.3873170  29.7378419  64.5938632  39.3192359
  29.7176346  64.4121927  40.1727138  29.7857619  65.4650650  39.2951943
  29.7413060  64.6955170  39.4415654  27.6824749  71.1825824  45.2440836
  27.6420603  70.5375501  44.6585991  28.4948067  71.1262441  45.5566248
  27.7967902  71.0784791  45.2037785  26.2125412  63.0008783  28.7663743
  25.6190252  63.3225779  28.2148310  26.2500690  62.1549878  28.5584849
  26.1299801  62.9233111  28.6546514  29.0883229  62.9588287  32.1965493
  28.8596922  62.9820989  31.3543851  29.3481305  62.1345754  32.3160504
  29.0929417  62.8404367  32.0890691  23.3702457  64.8122760  41.7990593
  22.8581360  64.2043943  42.1575625  23.1981953  65.5279353  42.2664569
  23.2692094  64.8286060  41.9206817  18.2168172  63.2560336  44.4492955
  18.0470762  63.9161710  43.9041162  17.7734122  63.4666897  45.1705444
  18.1267506  63.3846318  44.4754584  22.1427991  61.4964834  33.4919689
  22.6185358  61.8581913  32.8569870  21.6416591  62.1521301  33.7719831
  22.1393350  61.6459022  33.4396430  35.3739353  70.9686602  29.2832694
  35.7572959  71.7177958  29.5130791  34.5783466  71.2152421  29.0244683
  35.3133135  71.1156296  29.2790267  27.2471528  62.7347005  44.2392849
  27.8042958  62.5060815  43.6071314  26.9232593  63.4952671  43.9628061
  27.2817938  62.8130842  44.1049346  15.1170237  66.1607201  39.7081445
  14.5696956  65.4907847  39.8262313  15.9062615  65.7937049  39.7724912
  15.1522420  66.0072188  39.7350145  24.9654645  65.8214658  45.2044856
  25.7165972  66.1366335  45.5184410  25.1577221  65.6193829  44.3778778
  25.1046059  65.8382040  45.1288252  24.1854645  63.6406033  26.8593073
  24.5653609  63.6585663  26.0744187  23.4447241  64.0860022  26.7383920
  24.1323482  63.7087808  26.7256641  31.8139935  61.9488225  32.4468651
  31.8134162  61.7936881  33.3052928  31.6096115  62.7951212  32.3910037
  31.7839713  62.0508845  32.5656591  13.8757206  65.3728009  36.8627468
  13.6978967  64.9204618  37.5882383  13.5876228  66.1754170  37.0465945
  13.8070159  65.4250567  36.9970971  29.5380787  66.6285726  36.1004858
  30.0334452  65.9108721  36.0608878  28.7280563  66.3256524  35.9859345
  29.4924680  66.4783373  36.0778584  24.9839399  70.4783540  28.2501863
  24.1750721  70.1550213  28.2035172  25.4914308  69.7716762  28.1830111
  24.9389065  70.3264856  28.2332157  31.6032606  69.3789414  38.7881987
  32.0287678  68.8563836  38.2352412  31.2389526  69.9770251  38.2670610
  31.6119209  69.3899641  38.6290997  25.1080700  57.8651149  42.0741239
  25.2408606  57.0682142  42.4022215  25.4925853  58.3917552  42.6539515
  25.1837029  57.8251065  42.2084742  28.1813056  54.7881475  38.6722332
  27.3759019  54.6779205  38.9890171  28.0519791  54.8893931  37.8152198
  28.0433188  54.7865145  38.5930373  31.6379016  60.9526967  39.2662029
  31.0542005  61.4536173  38.8539597  31.9583310  60.4456523  38.6326353
  31.5992191  60.9518802  39.1120537  24.1773815  59.8667562  29.5420704
  24.9989510  60.0365874  29.3002399  23.7143466  60.0214823  28.8187002
  24.2304978  59.9149295  29.3992348  22.7669147  57.8610324  40.3219133
  23.3113560  57.5201451  40.9123475  22.8206083  58.7195785  40.4640418
  22.8558267  57.9365583  40.4301006  42.0009008  71.4697776  33.3455979
  41.6862449  72.1601255  33.7776401  41.4835950  71.4142559  32.6441480
  41.8773478  71.5632665  33.3052928  37.0345338  72.9521271  30.3156453
  37.7631498  72.7737226  29.8694609  37.1240231  73.7939351  30.5263631
  37.1552000  73.0505150  30.2809970  43.9731293  74.7561764  37.2120578
  44.6157201  74.8259868  37.7982493  44.2254313  74.0890987  36.7100120
  44.1053425  74.6688113  37.2247857  40.5915887  73.4706025  37.6808695
  40.9726399  72.7884196  38.0676570  39.7879172  73.1815627  37.4984360
  40.5292349  73.3273074  37.7112751  41.2272514  74.5128604  41.4928822
  41.9726106  74.3238415  41.0792247  40.8109818  75.0386842  40.9342678
  41.2757488  74.5630750  41.3493395  39.2723434  74.9411128  32.1626082
  39.9749787  74.7418877  31.6846040  39.0067623  74.1687071  32.4694925
  39.3370067  74.7974094  32.1371523  41.4183544  69.5791798  35.2922629
  41.5367112  70.0368261  34.5589931  41.2445719  68.7737059  35.0058846
  41.4102715  69.5285570  35.1423562  38.3861107  71.4342600  36.2341291
  37.5154665  71.4081322  36.1874600  38.6401449  71.2619793  35.4167136
  38.2954667  71.4052744  36.1061427  37.4802481  73.9841789  39.5207613
  37.0934234  74.0090820  40.3021143  36.9935419  73.4183468  39.0682130
  37.3514990  73.9037540  39.5695517  37.1459623  70.8708774  41.8117873
  37.7752741  71.4069074  41.5338944  37.3145486  70.7786133  42.6631439
  37.2637418  70.9370137  41.8966401  40.6383541  73.4044663  34.7803175
  40.8433135  73.3366971  35.6260172  40.3109965  74.2103484  34.7124353
  40.6198789  73.5130603  34.8962830  43.8917229  73.9576427  34.2605941
  43.2791543  74.4446829  34.6459672  43.9881404  73.2819918  34.8043592
  43.8155127  73.9294736  34.3984799  37.1528906  74.2132062  35.4980309
  36.3064951  74.3854869  35.3721658  37.1500038  73.4081405  35.8346137
  37.0276056  74.1193090  35.5291436  39.1713070  72.5875615  41.1661988
  38.6753632  72.7839289  40.4753555  39.9282133  72.9868283  40.9950790
  39.2099895  72.6753349  41.0382125  37.9600263  72.4373261  33.0387135
  37.3168581  72.2870907  33.6072273  37.6199670  72.1915606  32.2736240
  37.8145340  72.3785383  33.0090150  44.1451797  71.9706983  36.2991829
  43.6382661  71.2636123  36.2313007  44.9419230  71.6400172  36.4292906
  44.1879036  71.8180134  36.3090824  36.0813284  73.3836457  42.0741239
  36.2141190  72.5867450  42.4022215  36.4658437  73.9102860  42.6539515
  36.1569613  73.3436373  42.2084742  39.1545639  70.3066783  38.6722332
  38.3491603  70.1964512  38.9890171  39.0252375  70.4079239  37.8152198
  39.0165772  70.3050453  38.5930373  11.6410202  11.9279744  18.3103101
  11.6104206  12.7824381  18.4821371  12.2391550  11.6275037  18.8689245
  11.7247360  12.0096241  18.4177904   4.8409887  11.0155395  23.0656032
   3.9847782  11.1763893  23.1165149   4.8877540  10.1447459  23.0861093
   4.7208998  10.9106197  23.0762098   8.1503603  17.2841921  32.6716488
   8.8570370  16.7893951  32.8003422   8.3391538  17.7251002  31.9419146
   8.2831509  17.2760271  32.5825533   4.2180277  22.9257751  20.1989922
   4.6019657  23.4944650  19.6594697   4.1539419  22.2007261  19.7195738
   4.2653705  22.9033215  20.0483785   7.6861708  13.0747439  25.7087683
   8.2317668  13.7532526  25.7681653   7.6278584  12.9334900  24.8489265
   7.7577622  13.1539441  25.5899744   9.4626776  14.5032046  16.5821411
   9.3466302  15.2539732  17.0113549  10.2582663  14.2455999  16.8317498
   9.5631366  14.5766893  16.6825503   0.6436522  25.4814094  22.4970892
   1.2873977  25.9227258  22.8867050   0.9692778  24.6767520  22.4101151
   0.7868351  25.4279289  22.5416369   1.3457102  18.4926069  17.8690754
   1.6672943  19.0331276  17.2652062   1.9929198  17.9222841  18.0013043
   1.4883157  18.4885244  17.7997789   1.0518388  15.4756521  25.1423757
   1.6967391  14.9828964  24.8234706   1.2920165  15.6181308  25.9689836
   1.1828973  15.4233963  25.2173291   3.5904480  18.3211427  24.7930650
   3.8727722  17.5262833  24.5717406   4.3190640  18.7992014  24.8135711
   3.7394043  18.2746024  24.7633665  13.5722568  17.4270789  21.7666481
  12.7420271  17.6381433  21.9299897  13.5231820  16.6007844  21.4908764
  13.4429303  17.3360395  21.7503846   1.6332305  20.2574643  24.6014390
   1.1159247  19.8982058  23.9975698   2.3306697  19.7336818  24.6120456
   1.6597887  20.1272331  24.5144649   5.2895897  20.7069457  30.5630563
   5.3779243  20.5195598  31.4108774   5.7185610  20.0606887  30.1635410
   5.3658000  20.5832465  30.6302315   2.8566357  19.9900617  29.5448225
   2.2937192  19.5773227  30.0687887   3.6187381  19.9153523  29.9641369
   2.8860806  19.9178018  29.6841226  13.0676526  10.0741190  25.5616902
  12.2304947  10.1443377  25.7964496  13.0364757  10.0765685  24.6891204
  12.9394809  10.0851417  25.4676450   7.7906712  14.2696866  21.1528793
   8.5464227  14.7028381  21.1917702   7.8969036  13.6201636  21.7263430
   7.9176883  14.2374350  21.2426819  10.8286883  18.0970143  21.9031196
  10.3922115  18.1006886  22.6590168  10.4949799  18.7775642  21.4710774
  10.7149503  18.1982599  21.9512029   5.4015957  20.1378476  33.2274347
   6.1856373  20.2509324  33.5930089   5.2012551  19.3119613  33.4233033
   5.4881982  20.0325196  33.3108733  10.7484366   5.1383971  24.1460624
  11.3910274   5.2082076  24.7322540  11.0007387   4.4713194  23.6440166
  10.8806498   5.0510320  24.1587904   5.5586350  22.0488578  26.8740802
   4.7601596  21.8088078  27.1314671   6.0072362  22.1002971  27.6207850
   5.5060961  22.0210970  27.0225727  13.9631229  14.8151063  20.7950834
  14.6247663  14.2541732  20.6946742  13.3222641  14.3203094  21.1203525
  13.9660097  14.6587472  20.8283174  10.2496060  15.8316446  20.5362822
  10.4851649  15.9761645  19.7089673  10.3985624  16.5958854  20.9294336
  10.3061863  15.9655500  20.4726426  12.0786517  14.6718112  18.3732426
  12.4094734  15.2045752  17.7672521  12.6519605  14.7256999  19.0294377
  12.2120196  14.7587681  18.3810208   4.6187087  15.7949023  34.7660991
   3.8260068  16.1092535  34.9513610   4.7336014  16.0100492  33.9281775
   4.5182497  15.8732860  34.6699325   7.2918406  12.5183014  19.0556006
   7.3865260  13.2572308  19.5095632   6.6677249  12.0900490  19.4890571
   7.2127436  12.5644335  19.1864154   5.5470880  15.6969227  29.7046287
   6.1209741  15.0596471  29.8594851   5.4685683  15.6973309  28.8355945
   5.6204115  15.6034338  29.5992698   0.9034598  14.1292492  21.7567485
   0.6453843  13.2964227  21.7298784   0.9583081  14.3550105  20.9159985
   0.8734376  14.0390263  21.6287621   3.5442599  10.1553604  27.1024758
   3.1557032   9.7307822  26.4476949   2.8797297  10.4035754  27.6101785
   3.3889527  10.1292325  27.0812626  13.1865868   9.9128609  19.8772588
  12.9302433   9.1008550  19.6870471  14.0295182   9.9206176  19.6502775
  13.2731894   9.7940606  19.8157405  10.8691028  17.0678205  29.7131141
  10.6329665  16.2366269  29.5943201  11.5134256  17.0163812  30.2985985
  10.9285698  16.9375893  29.7817034   0.5189446  17.8573726  20.4273877
   1.1563393  17.6185473  20.9725670   0.9444517  18.0610885  19.6927038
   0.6765612  17.8524736  20.3991034  11.8927448  16.8522653  25.7759435
  11.5873265  17.5850710  26.1372751  11.1733664  16.4460583  25.4952221
  11.7414790  16.9004386  25.7872572   2.9010918  18.3346149  22.1067663
   2.9749926  18.1721320  22.9609513   3.7180424  18.5236338  21.8628145
   3.0327276  18.3382891  22.1965689  17.5929240  13.4915654  25.1027779
  17.5253741  13.5111613  24.2330366  17.5784903  14.3345981  25.3283450
  17.5807997  13.6189389  25.0080256   1.4415503  21.2980892  16.8381137
   1.7313802  20.9069873  16.1140363   2.1718984  21.4797597  17.2786412
   1.5922387  21.2674705  16.7963944  15.3787858  12.2660040  23.3774374
  15.9295779  11.6328109  23.6171466  15.3631973  12.7975433  24.0689878
  15.4573054  12.2508988  23.5153232   2.0310248  16.0998638  27.9234267
   1.5321942  16.8114405  28.0019156   2.8410473  16.4199304  27.8852429
   2.0766355  16.2525486  27.9290836   9.0816264  10.5056374  22.4878970
   8.7381030   9.7846709  22.8386220   9.1809306  10.2970225  21.6457328
   9.0458307  10.3680577  22.4150650   1.5489375  24.6477664  18.6871979
   2.2013433  24.1154106  18.9163005   0.8514983  24.2946316  19.0739853
   1.5420093  24.5167187  18.7784146   9.5429293  16.9682078  18.0302958
  10.1087326  17.6275288  17.9461501   8.8957196  17.3131776  18.5019360
   9.5308049  17.1164019  18.0875714   6.0135871  19.9120862  17.4540037
   5.7722547  19.1788723  17.0467102   6.1937204  20.4607719  16.8006371
   6.0043495  19.8843253  17.2970260   7.6007229   8.4247959  24.3638513
   6.7618330   8.4509238  24.1276776   7.6711597   9.0718694  24.9443859
   7.4875623   8.5244085  24.4147630  11.4764753  13.6315945  21.6499755
  11.3898728  13.7871372  22.5034533  11.0215233  14.2754021  21.2759160
  11.3968010  13.7491701  21.7206861   5.3490569  10.9526693  20.2725314
   5.1025283  10.8722443  21.1062103   5.6775692  10.1680160  20.0787842
   5.3611813  10.8252958  20.3672837   9.2438618  17.6610052  24.0612095
   9.1052977  18.3591098  24.5660838   8.4638616  17.5058708  23.7048277
   9.1081845  17.7410219  24.0838369   7.5816703  13.9606427  30.3134477
   7.5764742  13.0886244  30.3176903   8.2877697  14.1594596  29.8403933
   7.6861707  13.8610301  30.2441512   1.3087596  13.6883411  29.6848297
   1.4530972  14.2684619  29.0491407   1.6563245  14.0659708  30.3898152
   1.3815058  13.8304115  29.6947292   3.4807514  12.8873580  27.4673429
   2.7330828  13.0804594  27.0621707   3.6349039  12.0618799  27.2297550
   3.3929941  12.7938691  27.3718835   0.3815351  21.8786183  26.5509324
   0.5304915  21.3189099  25.8982728   1.1615354  21.9578185  26.9341843
   0.5189445  21.8071748  26.5106273  10.7391991  17.0188306  14.8228595
  10.3598800  16.2325444  14.8157884  10.0758236  17.5675163  14.6800239
  10.5850466  16.9833130  14.8009391   2.9068652  22.0500826  27.8293815
   2.8312323  21.3809636  28.3844603   2.8358511  22.7518614  28.3434481
   2.8849259  22.0545733  27.9870663   3.5638899  20.5701825  18.6617421
   4.3288790  20.3011468  18.3400085   3.4616989  20.0851835  19.3787484
   3.6620394  20.4591389  18.7197248   6.9835355  16.4068664  22.9270102
   6.3080357  16.1753897  23.4283489   6.9927731  15.7989847  22.3012207
   6.8853860  16.2827590  22.9086255   4.1129499  11.2486493  29.6834155
   4.0488640  12.1096450  29.5554292   4.2526687  10.9318486  28.8829707
   4.1244969  11.3286660  29.5462368   8.9852090  19.2633797  15.1580280
   9.0671927  20.0700783  14.8341731   9.4701832  19.2829756  15.8821054
   9.0689247  19.3854459  15.2167179   2.7948593  13.9418633  23.8250358
   2.3710842  14.1423132  23.0889377   2.6193448  13.0947481  23.9374658
   2.7059474  13.8467414  23.7324048   2.2960286  25.4569146  26.2871816
   2.7856217  24.7579935  26.1047480   1.7244519  25.1593016  26.8747873
   2.2844816  25.3095369  26.3472856   8.4927290  18.0231215  35.2398606
   9.3062155  17.7516364  35.4003739   8.3322256  17.7238755  34.4358802
   8.5897238  17.9386141  35.1444012   5.7699452   8.7064872  28.1793995
   5.9841421   8.0675786  27.6257348   5.1533351   9.1510696  27.7501856
   5.7104781   8.6775016  28.0344426   7.1804120  21.6283620  19.6248215
   6.7883911  21.3250336  18.9071082   7.3357192  22.4652710  19.4353169
   7.1457710  21.7067457  19.4904712   7.9338540  10.3153937  29.1177302
   7.1215222  10.0079828  29.1990474   8.3928474   9.8352937  29.6820014
   7.8818925  10.1990430  29.2131896   7.3443795  18.1933609  19.5654246
   6.9858449  18.3648252  20.3418278   6.8582505  18.6546815  19.0082244
   7.2202491  18.2872580  19.5979515   5.0292047  11.7214009  33.9006004
   5.4991679  12.3456125  34.2873878   5.0753928  11.0530984  34.4599219
   5.1059923  11.7148689  34.0406075   8.5048534  19.0837505  30.5121447
   9.1428254  18.5897701  30.1783903   7.8622625  19.0114906  29.9273674
   8.5042760  18.9996514  30.3763802  10.2305534  10.9326651  25.0787362
   9.8033142  10.8453000  24.3235462   9.5931587  11.0404427  25.6642207
  10.0735141  10.9359311  25.0532804   8.5602790  19.7757314  27.1526804
   9.3495169  19.4246378  27.2728885   8.7346388  20.5893702  26.8903437
   8.7023072  19.8443171  27.1314672   2.1112766  11.1147438  23.4552190
   1.8075903  10.5603427  24.0562598   1.4092187  11.2939648  22.9680224
   1.9628976  11.0592221  23.4721896  14.3095330  15.4115571  26.6223504
  14.3678454  15.8602220  27.3683480  13.6761798  15.8214384  26.1853584
  14.2246625  15.5389306  26.6676052   7.9494425  21.0319113  23.0578250
   7.7514114  21.5209928  22.3634461   7.3282136  21.2360355  23.6362383
   7.8281989  21.1335651  23.0401473  11.2617010  13.4331859  24.7089194
  11.0215233  12.5938274  24.7131620  11.7409017  13.5132026  25.4329967
  11.2969193  13.3213259  24.8163996  13.2622197  10.2133316  22.6618453
  13.0231967  10.1729150  21.8239238  13.4256098  11.0604468  22.7884174
  13.2512500  10.3325401  22.5571935   9.8668227  14.5983265  28.5923498
  10.5902426  14.1455792  28.4134518   9.6018189  14.8787931  27.8095826
   9.9349500  14.5734234  28.4502213   5.6487016  14.6967144  26.7418513
   5.0344010  14.1525194  27.0367148   6.1654301  14.1831380  26.2624329
   5.6342679  14.5403553  26.7142742   4.8883314  15.7671414  24.4762812
   4.4610922  15.1421132  24.0428247   4.8808258  15.4846336  25.3021819
   4.8242455  15.6324194  24.5342639   1.6799958  14.9371726  32.1731385
   0.8295589  15.0743441  32.3089030   1.8428086  14.2035505  32.6179086
   1.5783822  14.8485828  32.2586984  12.3003541  13.5609676  27.0954048
  12.8921381  14.2006927  27.1272246  12.7362535  12.8632713  27.3846115
  12.4521972  13.5528027  27.1434880   4.1296931  17.9827049  27.7211942
   3.6222022  18.5362896  28.1652572   3.8323577  18.0435339  26.9030716
   4.0101816  18.0733360  27.6660398   6.7404711  21.8990306  15.6515885
   6.0234021  21.7251169  15.1863123   7.3911449  21.6642879  15.1191371
   6.7306562  21.8386099  15.5045103   9.3252682  10.7754895  19.3957190
   8.6543872  11.3184597  19.2670256  10.0192433  11.2449750  19.1538885
   9.3281550  10.9253166  19.3412718   3.3739416  22.9151607  24.6268949
   3.1505070  22.1570436  24.9952975   2.8849259  22.9449628  23.9049388
   3.2682865  22.8073831  24.5745690   9.4880810   7.2310779  22.3047564
   9.8408420   6.8040501  22.9793362   8.6295611   7.1461622  22.4348640
   9.4130254   7.1555519  22.4242574   7.4864076  10.4946147  26.2532406
   7.4662003  10.3129442  27.1067185   7.5343276  11.3658166  26.2291989
   7.4898717  10.5962685  26.3755701   5.4310405  17.0833339  32.1780882
   5.3906260  16.4383016  31.5926038   6.2433724  17.0269957  32.4906294
   5.5453559  16.9792306  32.1377832   2.0217873  23.1352065  22.0806033
   1.6078272  22.4726195  21.6909875   2.7065247  23.2829924  21.5601727
   2.0616245  23.0592723  21.9462530   5.3883167  22.2942150  22.8329650
   4.9899450  22.4044421  22.0650470   4.7734387  22.5024217  23.4156210
   5.2382056  22.3415718  22.8060949  13.1225010  16.8694117  16.2172740
  13.5058616  17.6185473  16.4470838  12.3269123  17.1159937  15.9584730
  13.0618792  17.0163811  16.2130314   4.9957184   8.6354520  31.1732896
   5.5528615   8.4068330  30.5411361   4.6718249   9.3960186  30.8968108
   5.0303595   8.7138357  31.0389393   2.7140302  11.7222174  32.1384903
   3.4651629  12.0373850  32.4524457   2.9062878  11.5201345  31.3118824
   2.8531716  11.7389555  32.0628298   7.2866444  12.5293242  23.0344905
   7.7820109  11.8116237  22.9948925   6.4766220  12.2264039  22.9199392
   7.2410337  12.3790888  23.0118631   9.3518263  15.2796929  25.7222034
   9.7773334  14.7571351  25.1692459   8.9875183  15.8777767  25.2010657
   9.3604865  15.2907156  25.5631043   5.9396862  18.9931193  22.0523191
   6.4108040  19.7071456  22.2213176   6.2757041  18.3929944  22.5883061
   6.0591977  19.0102658  22.1555567   8.0273847  20.6032507  34.2315263
   8.1370812  19.8141067  34.5872010   8.3564743  20.5138443  33.4289601
   8.0926253  20.4738360  34.1657654   6.5770809  18.7849128  28.8150884
   6.0291755  18.1607011  28.5470949   7.0383837  18.9743400  28.0994963
   6.5638018  18.7208178  28.6701315   9.3864673   6.8534482  26.2002076
   8.8027662   7.3543689  25.7879644   9.7068967   6.3464038  25.5666399
   9.3477848   6.8526317  26.0460583   6.1429135  19.7900200  25.3460225
   6.9627509  19.6463166  25.6076520   5.8623213  20.4146399  25.8876663
   6.2225878  19.8610552  25.4648164  15.8142470  26.5340703  23.0656032
  14.9580366  26.6949201  23.1165149  15.8610124  25.6632767  23.0861093
  15.6941582  26.4291505  23.0762098  10.1983610  36.0703421  18.8293263
   9.4466509  35.6918959  18.6009308  10.6469621  36.1021855  18.0812074
  10.1533277  36.0189028  18.6850766  15.6508570  36.4928790  14.2578810
  15.3159938  37.1705712  13.8223033  16.1635440  36.1034102  13.6695682
  15.6774151  36.5353369  14.1065602  15.1912861  38.4443059  20.1989922
  15.5752240  39.0129958  19.6594697  15.1272002  37.7192569  19.7195738
  15.2386288  38.4218523  20.0483785  11.7768366  36.0821813  21.0956036
  11.8778729  35.2722167  21.4053164  11.1810111  35.9878759  20.4655714
  11.7040905  35.9486841  21.0482274  20.4359360  30.0217354  16.5821411
  20.3198886  30.7725040  17.0113549  21.2315246  29.7641307  16.8317498
  20.5363949  30.0952201  16.6825503  11.6169106  40.9999402  22.4970892
  12.2606561  41.4412566  22.8867050  11.9425361  40.1952828  22.4101151
  11.7600934  40.9464597  22.5416369   4.9733410  32.1042100  20.7208370
   4.7383595  31.2709752  20.6140638   5.1119051  32.3846765  19.9069571
   4.9589073  32.0225603  20.5850725   7.2723498  24.2727830  23.6192677
   6.6528529  23.6820477  23.4502692   7.1707361  24.8639265  22.9857000
   7.1661173  24.2731913  23.4997667  12.3189685  34.0111377  17.8690754
  12.6405526  34.5516584  17.2652062  12.9661782  33.4408148  18.0013043
  12.4615740  34.0070552  17.7997789  14.3691393  26.0127372  17.9525140
  15.0671558  26.1915500  18.4446604  14.6843726  25.4897711  17.3295530
  14.5186731  25.9621144  17.9327151   6.9992631  27.8180112  25.8636246
   6.8751328  28.4042557  26.4986065   7.6510915  27.3240308  26.1648521
   7.0766280  27.8318916  26.0022176  14.5579329  32.3997817  17.9404932
  14.9972964  31.7914918  18.3859705  14.4083992  32.0205190  17.1690397
  14.6000794  32.2536288  17.8924099  12.0250972  30.9941829  25.1423757
  12.6699974  30.5014272  24.8234706  12.2652749  31.1366615  25.9689836
  12.1561557  30.9419271  25.2173291  12.5418257  21.3819769  22.0346415
  12.2121587  21.8330912  21.3650114  11.8663259  21.3035932  22.5819421
  12.3928693  21.4370904  22.0169638  18.1588665  30.7524998  14.8935701
  18.0739960  31.6085965  15.0385270  18.6473049  30.4769322  15.5617860
  18.2177563  30.8382320  15.0137783  19.7494665  17.3705292  20.2796026
  19.4348106  18.0608770  20.7116448  19.2321606  17.3150074  19.5781526
  19.6259135  17.4640180  20.2392975  19.0907099  27.3709793  16.3933436
  18.5618570  27.5869426  17.0530742  19.6132118  28.0645931  16.3134406
  19.0895551  27.5052929  16.4789035  10.9806706  31.2673009  15.1940904
  10.3963922  31.7723041  15.6006768  10.5776802  31.0415396  14.4537496
  10.8346010  31.3081258  15.1445929   6.5350735  36.9827770  21.9964576
   6.0518313  37.7078260  21.9724159   7.3474053  37.2803900  22.1074733
   6.5841483  37.1330124  22.0091855  12.6064889  35.7759951  24.6014390
  12.0891831  35.4167366  23.9975698  13.3039280  35.2522126  24.6120456
  12.6330470  35.6457639  24.5144649  15.4383921  27.5138661  13.6709825
  15.6779924  27.7216645  12.8585168  15.7599762  26.7096170  13.7798769
  15.5221079  27.4252763  13.5670378  10.7474211  19.4432057  17.5169363
  11.5020179  19.8110374  17.2786413  10.5701746  19.8171611  18.2848542
  10.8328689  19.5530245  17.5954251   9.3894932  37.4983946  22.1484856
  10.0915512  36.9835935  22.2057612   9.3092415  37.8258098  22.9531731
   9.4818693  37.4698173  22.2757648  10.4373839  27.7359533  31.2765271
  10.6094342  27.6265428  32.1250552  10.9743196  28.3813939  31.0396463
  10.5418843  27.8151535  31.3670367   9.1031276  21.8502376  14.2147476
   8.9206849  22.0674257  13.3888468   9.9656889  21.9641389  14.2706090
   9.2035865  21.8992274  14.1001963   8.7145708  33.6890298  21.6570464
   9.5534607  33.9213231  21.7044225   8.7457477  32.8194610  21.5877499
   8.8427425  33.5947245  21.6535108   9.3398411  34.1091174  25.9583769
   9.8796636  33.9662305  26.6287141   8.6568357  34.5087924  26.3267795
   9.3190565  34.1470844  26.1118191  14.7830995  18.8528787  17.2496500
  15.5117155  18.6744742  16.8034656  14.8725888  19.6946867  17.4603678
  14.9037657  18.9512665  17.2150017  18.7639296  29.7882174  21.1528793
  19.5196811  30.2213688  21.1917702  18.8701620  29.1386944  21.7263430
  18.8909466  29.7559658  21.2426819   4.7435556  30.3291464  26.1118191
   4.4773971  29.5130581  26.2709181   4.7574120  30.3744620  25.2413706
   4.7060278  30.2148369  26.0071673   8.6493303  25.1276549  12.7269949
   7.9351480  24.8414728  13.1392381   9.1337271  25.4673175  13.3676336
   8.6152666  25.1358198  12.8825584   9.4934162  23.8669843  28.7585198
   8.8005959  23.3966822  29.0045930  10.1094489  23.6408147  29.3326906
   9.4818692  23.7636974  28.8794351  15.8240621  33.6306503  13.1031757
  16.2391769  33.2991527  12.4116253  14.9932550  33.3975405  12.9751894
  15.7628629  33.5477759  12.9822604   5.1528969  31.1150244  23.3929935
   4.9704543  31.0897130  22.5402227   5.8878638  31.5849182  23.4318844
   5.2343033  31.1811606  23.2727853  21.2228644  31.3501754  20.5362822
  21.4584233  31.4946953  19.7089673  21.3718207  32.1144162  20.9294336
  21.2794447  31.4840808  20.4726426   8.2174721  27.8335247  29.9012044
   8.9414693  27.8188277  30.3876938   8.3190858  28.5430602  29.4034012
   8.3392930  27.9359950  29.8990830  18.2650989  28.0368322  19.0556006
  18.3597844  28.7757616  19.5095632  17.6409833  27.6085798  19.4890571
  18.1860020  28.0829643  19.1864154   5.1199880  27.9943744  23.5429002
   5.6973382  27.8580195  24.1821247   4.4213941  27.5379529  23.7974586
   5.1020901  27.9066011  23.6751291  18.5174011  29.8817062  12.2892958
  18.4354173  29.9519249  13.1547945  19.1553731  30.4446806  12.0976699
  18.5993848  29.9756033  12.3882908  11.8767182  29.6477800  21.7567485
  11.6186426  28.8149535  21.7298784  11.9315665  29.8735413  20.9159985
  11.8466960  29.5575571  21.6287621  16.9568232  21.7506251  21.8571577
  16.2524559  21.2615436  22.0155497  17.0053206  21.7628725  20.9860022
  16.8598284  21.6795899  21.7510917  10.8501894  27.2015563  22.2432379
  10.2751485  27.3607731  22.8796340  10.4737570  26.5650972  21.7800830
  10.7104706  27.1313375  22.2686938  14.5175183  25.6738912  27.1024758
  14.1289615  25.2493130  26.4476949  13.8529881  25.9221061  27.6101785
  14.3622110  25.6477633  27.0812626   0.5958713  26.8455637  20.2576820
   0.6818965  26.4687506  21.0390350   1.2234510  26.4716083  19.7796778
   0.7015264  26.7341119  20.3022297  15.6214121  29.9037516  15.3001565
  16.4354760  30.1952409  15.1884336  15.5573262  29.2497379  14.7259858
  15.7316860  29.8502711  15.1990402  11.4922029  33.3759034  20.4273877
  12.1295976  33.1370781  20.9725670  11.9177101  33.5796193  19.6927038
  11.6498195  33.3710044  20.3991034   6.1834672  35.6147370  24.3108181
   6.2238817  35.8862221  23.4827960   6.7429196  36.1389278  24.7265969
   6.2718017  35.7323125  24.2500069  12.1324844  28.5961324  14.7648766
  12.5169997  28.3769030  15.5165311  11.8836465  29.4224269  14.8949843
  12.1526917  28.6859470  14.8949843  12.2993385  21.8767739  34.4811351
  11.9846826  22.6467302  34.2180913  11.9783317  21.3137995  33.8963578
  12.2052304  21.9078008  34.3552700  13.8743501  33.8531456  22.1067663
  13.9482509  33.6906628  22.9609513  14.6913007  34.0421646  21.8628145
  14.0059860  33.8568199  22.1965689   7.6349258  34.1989319  19.1362107
   6.8087375  34.4451056  19.0096385   7.6961249  34.1201400  20.0024165
   7.5223425  34.2234268  19.2451051   9.8525282  20.2658260  20.0957547
   8.9847707  20.3380860  20.1615156  10.1400486  21.0680339  20.2845522
   9.7665030  20.3952407  20.1332313  12.4148087  36.8166200  16.8381137
  12.7046385  36.4255181  16.1140363  13.1451568  36.9982904  17.2786412
  12.5654971  36.7860013  16.7963944  10.3554002  38.7933582  19.9041286
  10.1354298  38.5030937  20.6967953  10.1348524  38.1348537  19.3759199
  10.2901597  38.6533290  19.9430195   9.2670950  30.8806898  22.1696988
   8.9784198  30.2544370  22.7042715  10.1354298  30.8227186  22.2361668
   9.3531202  30.7794443  22.2587943  12.5221958  40.1662972  18.6871979
  13.1746016  39.6339414  18.9163005  11.8247567  39.8131624  19.0739853
  12.5152676  40.0352495  18.7784146   9.4703223  32.5202150  18.0939353
  10.2249191  32.9015189  18.3074816   8.8773836  32.9713293  18.5486050
   9.4939937  32.6430977  18.1922231  20.5161877  32.4867386  18.0302958
  21.0819909  33.1460596  17.9461501  19.8689780  32.8317084  18.5019360
  20.5040633  32.6349327  18.0875714  11.9309890  24.4764990  33.2196565
  11.1209666  24.7822770  33.1086408  12.4084577  25.1970572  33.3349149
  11.8813369  24.6279591  33.2203636  10.7901450  33.6910711  23.4679468
  10.2682203  33.8311003  24.1531333  11.1775470  32.9321375  23.6581586
  10.7705151  33.5996235  23.5980545   7.7792634  23.7416520  17.5374423
   7.4917429  23.3717790  16.8006370   8.4663102  24.2111375  17.2758128
   7.8381531  23.7563489  17.3889499  16.9868455  35.4306170  17.4540037
  16.7455131  34.6974031  17.0467102  17.1669788  35.9793027  16.8006371
  16.9776079  35.4028561  17.2970260  12.2167775  30.7214730  18.8660959
  12.0210558  31.3289464  18.2721262  12.4402121  30.0282674  18.3852633
  12.2202416  30.7092255  18.7077040  10.6146305  27.6069468  18.9841828
  11.3368957  27.7710626  18.5245634  10.1354298  28.3279133  18.8781168
  10.6510036  27.7367697  18.9007442   8.2653922  30.0127540  28.0895968
   8.7775019  30.2911793  27.4404727   7.9790265  30.7516834  28.4558781
   8.2988785  30.1629894  28.0485846  17.0209091  20.8418644  19.0966129
  17.7235444  20.6426392  18.6186087  16.7553280  20.0694586  19.4034972
  17.0855723  20.6981610  19.0711570   5.3520828  24.5197732  18.3859704
   5.4536965  25.3223893  18.7140680   6.1476715  24.3185068  18.0882785
   5.4848734  24.6083631  18.3895060  11.7837647  22.1053929  28.1497009
  11.5920844  22.1209063  28.9996433  12.6336243  22.3017603  28.1263664
  11.8813369  22.1368280  28.2720304   6.1684560  24.6344910  26.1280826
   6.0270052  23.7828851  26.2525334   6.4525124  24.6773571  25.3043032
   6.1892406  24.5144660  26.0248450  16.3223153  26.4712000  20.2725314
  16.0757867  26.3907751  21.1062103  16.6508276  25.6865468  20.0787842
  16.3344396  26.3438266  20.3672837  12.2820180  29.2068719  29.6848297
  12.4263556  29.7869927  29.0491407  12.6295829  29.5845016  30.3898152
  12.3547641  29.3489423  29.6947292  14.4540097  28.4058887  27.4673429
  13.7063411  28.5989902  27.0621707  14.6081623  27.5804107  27.2297550
  14.3662525  28.3123999  27.3718835  11.3547935  37.3971491  26.5509324
  11.5037499  36.8374407  25.8982728  12.1347937  37.4763493  26.9341843
  11.4922029  37.3257056  26.5106273  21.7124574  32.5373614  14.8228595
  21.3331383  31.7510752  14.8157884  21.0490820  33.0860471  14.6800239
  21.5583049  32.5018438  14.8009391  13.8801236  37.5686134  27.8293815
  13.8044907  36.8994944  28.3844603  13.8091095  38.2703922  28.3434481
  13.8581843  37.5731041  27.9870663   6.9374866  22.5475258  29.4458276
   6.4017055  21.9355616  29.7619043   6.9992630  23.1223394  30.0991943
   6.8670498  22.5422186  29.5893703  19.1669200  15.4799313  22.2262675
  19.2852768  15.9375777  21.4929978  18.9931376  14.6744575  21.9398893
  19.1588371  15.4293085  22.0763609  14.5371483  36.0887133  18.6617421
  15.3021374  35.8196776  18.3400085  14.4349573  35.6037143  19.3787484
  14.6352978  35.9776697  18.7197248  12.5724252  24.2911542  25.2010656
  11.7820327  24.1103002  25.5227992  12.9684875  23.5138495  25.1840951
  12.5141129  24.1499003  25.2463205  17.0590143  33.1199316  10.6417370
  17.8263128  33.1799441  10.2323222  16.6121452  32.5479758  10.1573689
  17.1063570  33.0435892  10.5095080  15.0862083  26.7671801  29.6834155
  15.0221224  27.6281758  29.5554292  15.2259270  26.4503794  28.8829707
  15.0977553  26.8471968  29.5462368  19.9584673  34.7819105  15.1580280
  20.0404511  35.5886091  14.8341731  20.4434415  34.8015064  15.8821054
  20.0421831  34.9039767  15.2167179  13.7681176  29.4603941  23.8250358
  13.3443426  29.6608440  23.0889377  13.5926032  28.6132789  23.9374658
  13.6792057  29.3652722  23.7324048  13.2692870  40.9754454  26.2871816
  13.7588800  40.2765243  26.1047480  12.6977102  40.6778324  26.8747873
  13.2577400  40.8280677  26.3472856   9.0563621  29.9555992  19.2578331
   9.2128241  29.8902795  20.1134323   9.3964215  30.7304545  19.0457010
   9.1296856  30.0605190  19.3532925  13.7629216  34.7231227  15.4111722
  13.8322036  33.8645766  15.5504722  14.5417671  34.9403108  15.0830747
  13.8882066  34.6284091  15.3828879  18.1536703  37.1468928  19.6248215
  17.7616495  36.8435644  18.9071082  18.3089776  37.9838018  19.4353169
  18.1190293  37.2252765  19.4904712   5.6297883  27.1390942  19.5739098
   6.0096848  27.5575487  18.9099365   5.0553248  27.7204398  19.8807941
   5.6009208  27.2868801  19.5215839  18.3176378  33.7118917  19.5654246
  17.9591033  33.8833560  20.3418278  17.8315089  34.1732123  19.0082244
  18.1935075  33.8057888  19.5979515  16.1346764  17.3350116  23.1681337
  15.2640322  17.3088837  23.1214647  16.3887105  17.1627308  22.3507183
  16.0440324  17.3060259  23.0401474  13.1064744  29.3918083  12.1054480
  13.3957268  30.1682965  12.3798055  13.1936542  28.8806814  12.8068980
  13.1619000  29.4310001  12.2496978  13.1595905  19.3456344  24.6254808
  12.6434393  18.6536536  24.7506387  12.5989833  20.0127121  24.5717406
  13.0002418  19.3419602  24.6360874  15.2288138  19.8849304  26.4547660
  14.8419891  19.9098336  27.2361190  14.7421075  19.3190983  26.0022177
  15.1000647  19.8045055  26.5035564  14.8945280  16.7716290  28.7457920
  15.5238398  17.3076590  28.4678991  15.0631142  16.6793649  29.5971486
  15.0123074  16.8377652  28.8306448   9.2728684  28.7051347  24.2054592
   8.4316691  28.6055221  24.4133486   9.4818692  29.4746827  24.5568913
   9.1793377  28.8043391  24.2881907   6.7504251  26.3270884  22.0339343
   6.3560949  26.4013896  21.2589453   6.1944368  26.7128831  22.5847705
   6.6107064  26.3952659  22.0007003  18.3869198  19.3052178  21.7143222
  18.5918792  19.2374486  22.5600219  18.0595622  20.1110999  21.6464399
  18.3684446  19.4138119  21.8302877  13.0845349  26.6332746  23.4552190
  12.7808487  26.0788735  24.0562598  12.3824770  26.8124956  22.9680224
  12.9361559  26.5777529  23.4721896  12.1411446  23.9433266  18.0196892
  12.4171181  23.2252179  17.6074459  12.7410116  24.5418186  17.8117998
  12.2704711  23.9253637  17.9277653  11.1463700  33.8482467  28.1624288
  11.0384055  33.8584529  29.0286346  11.3559482  34.6737248  27.9729241
  11.1613811  33.9723542  28.2628379  21.6402886  19.8583942  21.1945987
  21.0277200  20.3454345  21.5799719  21.7367061  19.1827433  21.7383639
  21.5640784  19.8302251  21.3324846  15.6421967  21.6146784  16.2943487
  16.0965713  21.7857344  17.0191331  16.1162013  21.0014894  15.8941262
  15.7790287  21.5497669  16.3417248   9.1637492  31.0995110  25.6246225
   8.5725426  31.7404608  25.5949240   9.9258516  31.5232727  25.5977525
   9.1885753  31.2570948  25.6161372   9.5598115  22.2597107  26.2914243
  10.0199597  22.3336037  27.0289367   9.6054222  23.0578361  25.9414064
   9.6348670  22.3891254  26.3486999  11.2081465  22.9263802  30.8586270
  10.8167030  22.2797149  31.2942048  11.3767328  23.5175237  31.4780525
  11.1752375  22.9178070  31.0148976  12.9834987  28.3189318  17.3988494
  13.7277032  28.7063594  17.6371444  13.1295683  27.4746743  17.5628982
  13.1145572  28.2519791  17.4582464  14.9014562  20.1139577  22.4320355
  14.0550607  20.2862385  22.3061705  14.8985695  19.3088921  22.7686184
  14.7761712  20.0200606  22.4631482  15.9712863  23.8914791  23.2982413
  15.4972817  23.3656553  23.8087724  16.3430999  23.3444264  22.7297275
  15.9562752  23.7330788  23.2897561   6.3485893  25.8886298  28.6665959
   7.2111506  25.7882007  28.5803289   6.0177676  25.3081007  28.1051531
   6.4271089  25.7877925  28.5711365  17.8996362  24.7851346  16.3608167
  17.3719381  24.8680090  15.6713876  18.3592071  25.5269217  16.3572812
  17.8898213  24.9072008  16.2582862   9.7087679  24.7128747  25.3276377
   9.0840749  24.7247139  24.7202330   9.3733274  25.1888922  25.9767618
   9.5673171  24.7847264  25.3332946   6.4213354  32.7729207  26.7680142
   5.8913279  32.0821646  26.8175116   6.6938448  32.7639392  25.9392850
   6.3838077  32.6696339  26.6527558  17.4533445  33.3554909  15.4917824
  18.1767644  33.8213022  15.3482397  17.0134036  33.4228519  14.7415421
  17.4949137  33.4338746  15.3602606   8.9778424  26.3221895  27.5451246
   9.1371911  25.5665219  27.9502968   8.7971318  26.8712834  28.1991983
   8.9743783  26.2915708  27.7013952  14.1901607  22.1625476  24.6905346
  14.2144094  21.6285589  24.0018126  14.4413080  21.6542785  25.3530936
  14.2311526  22.0086380  24.6869990   1.7009197  29.4456971  24.1248490
   1.5952646  29.4003816  23.2600574   0.9509417  29.7910752  24.4062775
   1.5744800  29.4897879  24.0385820  10.4702929  20.8896294  24.0711090
  10.5101301  21.3905501  24.7845798   9.6452594  20.9806688  23.8017013
  10.3542455  20.9778111  24.1361628  11.8917292  27.4056804  26.3684989
  11.0609222  27.5730622  26.1620237  11.8368810  27.0292755  27.1533874
  11.7606707  27.3746536  26.4533517   9.7001076  20.8965697  32.0041400
  10.3253779  20.3527830  32.2770832   9.2451556  20.4160615  31.4349190
   9.7249336  20.7455179  31.9602994  10.2653336  25.6812396  16.8975107
  10.4056297  26.1784860  17.6003748  10.7635869  24.9798690  17.0389321
  10.3594417  25.6514375  17.0226686  10.2953559  26.5479507  14.2267684
  10.9298638  27.1439932  14.1617145  10.3779170  26.2482964  15.0413554
  10.4010110  26.5920415  14.3370770  11.8732542  22.4793482  14.2013126
  12.1948383  21.9996565  13.5472388  12.1359485  23.2893128  14.0103937
  11.9598567  22.5283380  14.0768618   6.8006547  28.7447348  17.4957230
   7.3098776  29.3411855  17.8768535   7.2740819  28.4773321  16.8133649
   6.9449922  28.7933163  17.4511752  17.7137295  37.4175614  15.6515885
  16.9966604  37.2436477  15.1863123  18.3644032  37.1828187  15.1191371
  17.7039145  37.3571407  15.5045103  15.7085919  18.3380776  19.9727182
  15.0654237  18.1878422  20.5412320  15.3685326  18.0923121  19.2076286
  15.5630997  18.2792898  19.9430197  14.3472000  38.4336915  24.6268949
  14.1237654  37.6755744  24.9952975  13.8581843  38.4634936  23.9049388
  14.2415449  38.3259139  24.5745690   9.1597078  25.3803606  20.3630410
   8.4409067  25.7967739  20.6303274   9.5309441  25.9457845  19.8122048
   9.1089010  25.5252888  20.3213217  12.9950457  38.6537373  22.0806033
  12.5810855  37.9911503  21.6909875  13.6797831  38.8015232  21.5601727
  13.0348828  38.5778031  21.9462530  16.3615751  37.8127458  22.8329650
  15.9632034  37.9229729  22.0650470  15.7466970  38.0209525  23.4156210
  16.2114640  37.8601026  22.8060949  14.9343653  24.4201606  15.7003790
  14.3408492  24.7418603  15.1488357  14.9718930  23.5742701  15.4924896
  14.8518042  24.3425934  15.5886561  21.8937453  17.8714498  23.2331876
  21.3868318  17.1643638  23.1653054  22.6904887  17.5407687  23.3632953
  21.9364693  17.7187650  23.2430871  17.8101469  24.3781111  19.1305540
  17.5815162  24.4013812  18.2883898  18.0699545  23.5538578  19.2500550
  17.8147657  24.2597190  19.0230738  12.0920698  26.2315584  28.7330640
  11.5799601  25.6236767  29.0915671  11.9200194  26.9472176  29.2004616
  11.9910335  26.2478883  28.8546864   6.9386412  24.6753159  31.3833002
   6.7689003  25.3354534  30.8381208   6.4952362  24.8859720  32.1045491
   6.8485746  24.8039141  31.4094631  10.8646232  22.9157657  20.4259735
  11.3403598  23.2774737  19.7909917  10.3634831  23.5714124  20.7059878
  10.8611591  23.0651846  20.3736476  24.0957593  32.3879425  16.2172740
  24.4791199  33.1370781  16.4470838  23.3001707  32.6345245  15.9584730
  24.0351376  32.5349119  16.2130314   3.8388477  27.5800024  26.6421492
   3.2915196  26.9100670  26.7602360   4.6280855  27.2129872  26.7064959
   3.8740661  27.4265011  26.6690192  13.6872885  27.2407482  32.1384903
  14.4384212  27.5559158  32.4524457  13.8795462  27.0386652  31.3118824
  13.8264299  27.2574863  32.0628298  12.9072885  25.0598857  13.7933119
  13.2871850  25.0778486  13.0084234  12.1665481  25.5052845  13.6723967
  12.8541723  25.1280631  13.6596688  20.5358175  23.3681048  19.3808698
  20.5352402  23.2129704  20.2392974  20.3314356  24.2144035  19.3250084
  20.5057953  23.4701669  19.4996638   2.5975446  26.7920832  23.7967515
   2.4197208  26.3397441  24.5222430   2.3094469  27.5946994  23.9805992
   2.5288400  26.8443390  23.9311018  18.2599028  28.0478550  23.0344905
  18.7552693  27.3301545  22.9948925  17.4498803  27.7449347  22.9199392
  18.2142921  27.8976196  23.0118631  13.7057639  31.8976363  15.1841909
  12.8968962  31.5743036  15.1375219  14.2132548  31.1909585  15.1170158
  13.6607306  31.7457679  15.1672204   4.3347916  29.3248556  20.9089274
   3.4693436  29.3134246  20.7972045   4.4346732  29.1378779  21.7560413
   4.2222083  29.2954617  21.0178218   9.9604926  39.0946455  24.4819379
  10.2751485  39.9082843  24.4897161  10.3698340  38.7096673  25.1501538
  10.0673024  39.1575157  24.5823471  13.8298941  19.2843972  29.0081286
  13.9626846  18.4874965  29.3362262  14.2144094  19.8110375  29.5879562
  13.9055270  19.2443889  29.1424789  16.9031296  16.2074298  25.6062379
  16.0977260  16.0972028  25.9230218  16.7738031  16.3086754  24.7492245
  16.7651429  16.2057968  25.5270420  12.8992056  21.2860385  16.4760751
  13.7207750  21.4558698  16.2342446  12.4361707  21.4407646  15.7527049
  12.9523218  21.3342118  16.3332395  11.4887388  19.2803147  27.2559180
  12.0331801  18.9394274  27.8463521  11.5424323  20.1388609  27.3980464
  11.5776507  19.3558406  27.3641053   7.3017946  33.0419563  24.1297988
   7.9062804  33.0015397  23.5011808   7.0945259  33.8890715  24.1602043
   7.3606844  33.1607566  24.0414104   2.5369229  32.0254181  23.9996911
   2.4393507  31.2150452  24.3086967   3.3198098  32.0045974  23.6143179
   2.6385365  31.9021271  23.9883774  33.5875369  42.9650360  18.3103101
  33.5569373  43.8194997  18.4821371  34.1856718  42.6645653  18.8689245
  33.6712527  43.0466857  18.4177904  26.7875054  42.0526011  23.0656032
  25.9312949  42.2134509  23.1165149  26.8342707  41.1818075  23.0861093
  26.6674165  41.9476813  23.0762098  21.1716193  51.5888729  18.8293263
  20.4199093  51.2104267  18.6009308  21.6202205  51.6207162  18.0812074
  21.1265860  51.5374336  18.6850766  26.6241153  52.0114098  14.2578810
  26.2892522  52.6891020  13.8223033  27.1368024  51.6219410  13.6695682
  26.6506734  52.0538677  14.1065602  26.1645445  53.9628367  20.1989922
  26.5484824  54.5315266  19.6594697  26.1004586  53.2377877  19.7195738
  26.2118872  53.9403830  20.0483785  22.7500950  51.6007121  21.0956036
  22.8511312  50.7907475  21.4053164  22.1542695  51.5064067  20.4655714
  22.6773488  51.4672149  21.0482274  31.4091943  45.5402662  16.5821411
  31.2931469  46.2910348  17.0113549  32.2047830  45.2826615  16.8317498
  31.5096533  45.6137509  16.6825503  22.5901689  56.5184710  22.4970892
  23.2339145  56.9597874  22.8867050  22.9157945  55.7138136  22.4101151
  22.7333518  56.4649905  22.5416369  15.9465994  47.6227408  20.7208370
  15.7116178  46.7895060  20.6140638  16.0851635  47.9032073  19.9069571
  15.9321656  47.5410911  20.5850725  23.2922269  49.5296685  17.8690754
  23.6138110  50.0701892  17.2652062  23.9394365  48.9593456  18.0013043
  23.4348324  49.5255860  17.7997789  25.3423977  41.5312680  17.9525140
  26.0404142  41.7100807  18.4446604  25.6576309  41.0083019  17.3295530
  25.4919314  41.4806452  17.9327151  17.9725214  43.3365420  25.8636246
  17.8483911  43.9227865  26.4986065  18.6243499  42.8425616  26.1648521
  18.0498864  43.3504224  26.0022176  25.5311912  47.9183125  17.9404932
  25.9705548  47.3100225  18.3859705  25.3816575  47.5390498  17.1690397
  25.5733378  47.7721596  17.8924099  22.9983555  46.5127137  25.1423757
  23.6432558  46.0199580  24.8234706  23.2385332  46.6551923  25.9689836
  23.1294140  46.4604579  25.2173291  29.1321249  46.2710306  14.8935701
  29.0472544  47.1271273  15.0385270  29.6205632  45.9954630  15.5617860
  29.1910146  46.3567628  15.0137783  30.0639682  42.8895100  16.3933436
  29.5351154  43.1054734  17.0530742  30.5864702  43.5831239  16.3134406
  30.0628135  43.0238237  16.4789035  21.9539290  46.7858317  15.1940904
  21.3696505  47.2908349  15.6006768  21.5509385  46.5600704  14.4537496
  21.8078594  46.8266566  15.1445929  17.5083319  52.5013078  21.9964576
  17.0250897  53.2263568  21.9724159  18.3206637  52.7989208  22.1074733
  17.5574066  52.6515432  22.0091855  26.4116504  43.0323969  13.6709825
  26.6512508  43.2401953  12.8585168  26.7332345  42.2281478  13.7798769
  26.4953662  42.9438070  13.5670378  21.7206795  34.9617365  17.5169363
  22.4752763  35.3295682  17.2786413  21.5434329  35.3356919  18.2848542
  21.8061273  35.0715553  17.5954251  20.3627516  53.0169254  22.1484856
  21.0648095  52.5021243  22.2057612  20.2824999  53.3443406  22.9531731
  20.4551276  52.9883480  22.2757648  21.4106422  43.2544841  31.2765271
  21.5826926  43.1450736  32.1250552  21.9475780  43.8999247  31.0396463
  21.5151426  43.3336843  31.3670367  20.0763859  37.3687684  14.2147476
  19.8939432  37.5859565  13.3888468  20.9389472  37.4826697  14.2706090
  20.1768449  37.4177582  14.1001963  19.6878291  49.2075606  21.6570464
  20.5267191  49.4398539  21.7044225  19.7190060  48.3379918  21.5877499
  19.8160009  49.1132553  21.6535108  20.3130994  49.6276481  25.9583769
  20.8529219  49.4847612  26.6287141  19.6300940  50.0273232  26.3267795
  20.2923148  49.6656152  26.1118191  25.7563578  34.3714095  17.2496500
  26.4849739  34.1930050  16.8034656  25.8458471  35.2132174  17.4603678
  25.8770240  34.4697973  17.2150017  29.7371879  45.3067482  21.1528793
  30.4929394  45.7398996  21.1917702  29.8434204  44.6572252  21.7263430
  29.8642050  45.2744966  21.2426819  15.7168139  45.8476772  26.1118191
  15.4506555  45.0315889  26.2709181  15.7306703  45.8929928  25.2413706
  15.6792862  45.7333677  26.0071673  19.6225886  40.6461857  12.7269949
  18.9084063  40.3600036  13.1392381  20.1069855  40.9858482  13.3676336
  19.5885250  40.6543506  12.8825584  26.7973204  49.1491811  13.1031757
  27.2124353  48.8176834  12.4116253  25.9665134  48.9160713  12.9751894
  26.7361213  49.0663067  12.9822604  16.1261553  46.6335552  23.3929935
  15.9437126  46.6082438  22.5402227  16.8611222  47.1034489  23.4318844
  16.2075617  46.6996914  23.2727853  32.1961227  46.8687062  20.5362822
  32.4316816  47.0132261  19.7089673  32.3450791  47.6329470  20.9294336
  32.2527030  47.0026116  20.4726426  19.1907305  43.3520554  29.9012044
  19.9147277  43.3373585  30.3876938  19.2923441  44.0615910  29.4034012
  19.3125514  43.4545258  29.8990830  34.0251684  45.7088728  18.3732426
  34.3559901  46.2416368  17.7672521  34.5984772  45.7627615  19.0294377
  34.1585363  45.7958296  18.3810208  29.2383573  43.5553630  19.0556006
  29.3330427  44.2942924  19.5095632  28.6142417  43.1271106  19.4890571
  29.1592603  43.6014951  19.1864154  16.0932463  43.5129052  23.5429002
  16.6705966  43.3765503  24.1821247  15.3946525  43.0564836  23.7974586
  16.0753485  43.4251319  23.6751291  29.4906594  45.4002370  12.2892958
  29.4086757  45.4704557  13.1547945  30.1286315  45.9632114  12.0976699
  29.5726432  45.4941341  12.3882908  22.8499765  45.1663108  21.7567485
  22.5919010  44.3334843  21.7298784  22.9048248  45.3920721  20.9159985
  22.8199543  45.0760879  21.6287621  21.8234478  42.7200870  22.2432379
  21.2484069  42.8793039  22.8796340  21.4470154  42.0836280  21.7800830
  21.6837290  42.6498683  22.2686938  11.5691296  42.3640945  20.2576820
  11.6551548  41.9872814  21.0390350  12.1967094  41.9901391  19.7796778
  11.6747847  42.2526427  20.3022297  26.5946705  45.4222824  15.3001565
  27.4087343  45.7137717  15.1884336  26.5305846  44.7682687  14.7259858
  26.7049444  45.3688019  15.1990402  22.4654613  48.8944342  20.4273877
  23.1028560  48.6556089  20.9725670  22.8909684  49.0981501  19.6927038
  22.6230779  48.8895352  20.3991034  17.1567255  51.1332678  24.3108181
  17.1971400  51.4047529  23.4827960  17.7161779  51.6574586  24.7265969
  17.2450601  51.2508433  24.2500069  23.1057428  44.1146632  14.7648766
  23.4902581  43.8954338  15.5165311  22.8569048  44.9409577  14.8949843
  23.1259500  44.2044778  14.8949843  18.6081841  49.7174627  19.1362107
  17.7819959  49.9636364  19.0096385  18.6693833  49.6386708  20.0024165
  18.4956008  49.7419576  19.2451051  20.8257865  35.7843568  20.0957547
  19.9580291  35.8566168  20.1615156  21.1133069  36.5865647  20.2845522
  20.7397613  35.9137715  20.1332313  23.3880670  52.3351507  16.8381137
  23.6778969  51.9440489  16.1140363  24.1184151  52.5168212  17.2786412
  23.5387555  52.3045321  16.7963944  21.3286586  54.3118890  19.9041286
  21.1086881  54.0216245  20.6967953  21.1081108  53.6533845  19.3759199
  21.2634180  54.1718598  19.9430195  20.2403533  46.3992206  22.1696988
  19.9516782  45.7729678  22.7042715  21.1086881  46.3412494  22.2361668
  20.3263785  46.2979751  22.2587943  31.0281431  41.5426990  22.4878970
  30.6846197  40.8217325  22.8386220  31.1274474  41.3340841  21.6457328
  30.9923474  41.4051193  22.4150650  23.4954542  55.6848280  18.6871979
  24.1478600  55.1524722  18.9163005  22.7980150  55.3316932  19.0739853
  23.4885260  55.5537803  18.7784146  20.4435807  48.0387457  18.0939353
  21.1981775  48.4200496  18.3074816  19.8506419  48.4898601  18.5486050
  20.4672520  48.1616285  18.1922231  31.4894460  48.0052694  18.0302958
  32.0552493  48.6645904  17.9461501  30.8422364  48.3502392  18.5019360
  31.4773217  48.1534635  18.0875714  21.7634033  49.2096019  23.4679468
  21.2414787  49.3496310  24.1531333  22.1508054  48.4506683  23.6581586
  21.7437734  49.1181543  23.5980545  18.7525217  39.2601828  17.5374423
  18.4650013  38.8903098  16.8006370  19.4395685  39.7296683  17.2758128
  18.8114115  39.2748797  17.3889499  27.9601038  50.9491478  17.4540037
  27.7187714  50.2159339  17.0467102  28.1402371  51.4978335  16.8006371
  27.9508662  50.9213869  17.2970260  23.1900359  46.2400038  18.8660959
  22.9943141  46.8474772  18.2721262  23.4134704  45.5467982  18.3852633
  23.1935000  46.2277563  18.7077040  21.5878889  43.1254776  18.9841828
  22.3101541  43.2895934  18.5245634  21.1086882  43.8464441  18.8781168
  21.6242619  43.2553005  18.9007442  29.5472396  39.4618575  24.3638513
  28.7083497  39.4879853  24.1276776  29.6176764  40.1089310  24.9443859
  29.4340790  39.5614700  24.4147630  19.2386506  45.5312848  28.0895968
  19.7507602  45.8097101  27.4404727  18.9522848  46.2702142  28.4558781
  19.2721369  45.6815202  28.0485846  27.9941675  36.3603952  19.0966129
  28.6968028  36.1611700  18.6186087  27.7285863  35.5879894  19.4034972
  28.0588307  36.2166918  19.0711570  16.3253412  40.0383040  18.3859704
  16.4269548  40.8409201  18.7140680  17.1209299  39.8370376  18.0882785
  16.4581317  40.1268939  18.3895060  17.1417144  40.1530218  26.1280826
  17.0002636  39.3014159  26.2525334  17.4257707  40.1958879  25.3043032
  17.1624990  40.0329968  26.0248450  27.2955736  41.9897308  20.2725314
  27.0490451  41.9093059  21.1062103  27.6240859  41.2050776  20.0787842
  27.3076980  41.8623574  20.3672837  23.2552764  44.7254027  29.6848297
  23.3996139  45.3055235  29.0491407  23.6028412  45.1030324  30.3898152
  23.3280225  44.8674731  29.6947292  25.4272681  43.9244195  27.4673429
  24.6795995  44.1175210  27.0621707  25.5814206  43.0989415  27.2297550
  25.3395109  43.8309307  27.3718835  22.3280519  52.9156799  26.5509324
  22.4770082  52.3559715  25.8982728  23.1080521  52.9948801  26.9341843
  22.4654612  52.8442364  26.5106273  32.6857158  48.0558922  14.8228595
  32.3063967  47.2696059  14.8157884  32.0223403  48.6045779  14.6800239
  32.5315633  48.0203746  14.8009391  25.5104066  51.6072441  18.6617421
  26.2753957  51.3382084  18.3400085  25.4082156  51.1222451  19.3787484
  25.6085562  51.4962005  18.7197248  28.0322727  48.6384624  10.6417370
  28.7995712  48.6984749  10.2323222  27.5854036  48.0665066  10.1573689
  28.0796154  48.5621200  10.5095080  30.9317257  50.3004413  15.1580280
  31.0137094  51.1071399  14.8341731  31.4166999  50.3200372  15.8821054
  31.0154415  50.4225075  15.2167179  24.7413760  44.9789248  23.8250358
  24.3176009  45.1793748  23.0889377  24.5658615  44.1318096  23.9374658
  24.6524641  44.8838030  23.7324048  20.0296205  45.4741300  19.2578331
  20.1860824  45.4088103  20.1134323  20.3696798  46.2489852  19.0457010
  20.1029440  45.5790498  19.3532925  26.5675350  44.8499183  18.1271694
  27.1090895  44.3469565  18.5910315  26.8821909  44.7964378  17.3161179
  26.6939747  44.7678604  18.0755506  24.7361799  50.2416535  15.4111722
  24.8054620  49.3831073  15.5504722  25.5150255  50.4588416  15.0830747
  24.8614649  50.1469399  15.3828879  29.1269287  52.6654236  19.6248215
  28.7349079  52.3620951  18.9071082  29.2822359  53.5023326  19.4353169
  29.0922877  52.7438073  19.4904712  16.6030467  42.6576250  19.5739098
  16.9829431  43.0760795  18.9099365  16.0285831  43.2389706  19.8807941
  16.5741791  42.8054109  19.5215839  29.2908962  49.2304225  19.5654246
  28.9323616  49.4018868  20.3418278  28.8047672  49.6917431  19.0082244
  29.1667659  49.3243196  19.5979515  24.0797327  44.9103391  12.1054480
  24.3689852  45.6868273  12.3798055  24.1669126  44.3992122  12.8068980
  24.1351583  44.9495309  12.2496978  20.2461268  44.2236655  24.2054592
  19.4049275  44.1240529  24.4133486  20.4551276  44.9932135  24.5568913
  20.1525961  44.3228698  24.2881907  17.7236835  41.8456192  22.0339343
  17.3293533  41.9199204  21.2589453  17.1676952  42.2314138  22.5847705
  17.5839647  41.9137967  22.0007003  24.0577933  42.1518054  23.4552190
  23.7541070  41.5974043  24.0562598  23.3557354  42.3310264  22.9680224
  23.9094143  42.0962837  23.4721896  23.1144030  39.4618574  18.0196892
  23.3903764  38.7437487  17.6074459  23.7142699  40.0603494  17.8117998
  23.2437295  39.4438945  17.9277653  26.6154551  37.1332092  16.2943487
  27.0698297  37.3042652  17.0191331  27.0894596  36.5200202  15.8941262
  26.7522871  37.0682977  16.3417248  20.1370076  46.6180417  25.6246225
  19.5458009  47.2589916  25.5949240  20.8991099  47.0418035  25.5977525
  20.1618337  46.7756256  25.6161372  23.9567571  43.8374626  17.3988494
  24.7009615  44.2248902  17.6371444  24.1028267  42.9932051  17.5628982
  24.0878156  43.7705099  17.4582464  26.9445446  39.4100099  23.2982413
  26.4705401  38.8841861  23.8087724  27.3163582  38.8629572  22.7297275
  26.9295335  39.2516096  23.2897561  17.3218477  41.4071606  28.6665959
  18.1844090  41.3067315  28.5803289  16.9910260  40.8266315  28.1051531
  17.4003673  41.3063233  28.5711365  28.8728946  40.3036654  16.3608167
  28.3451965  40.3865398  15.6713876  29.3324654  41.0454525  16.3572812
  28.8630797  40.4257316  16.2582862  20.8662011  38.5739173  11.3849062
  20.5174816  39.2258899  11.8480612  20.3858457  38.5596286  10.6572934
  20.7432255  38.6682227  11.3460154  17.3945938  48.2914515  26.7680142
  16.8645863  47.6006954  26.8175116  17.6671031  48.2824700  25.9392850
  17.3570660  48.1881647  26.6527558  28.4266029  48.8740217  15.4917824
  29.1500227  49.3398330  15.3482397  27.9866620  48.9413827  14.7415421
  28.4681721  48.9524054  15.3602606  12.6741780  44.9642279  24.1248490
  12.5685229  44.9189123  23.2600574  11.9242000  45.3096060  24.4062775
  12.5477383  45.0083187  24.0385820  21.2385920  41.1997704  16.8975107
  21.3788881  41.6970168  17.6003748  21.7368453  40.4983998  17.0389321
  21.3327001  41.1699683  17.0226686  21.2686142  42.0664815  14.2267684
  21.9031222  42.6625240  14.1617145  21.3511753  41.7668272  15.0413554
  21.3742693  42.1105723  14.3370770  22.8465125  37.9978790  14.2013126
  23.1680966  37.5181873  13.5472388  23.1092069  38.8078436  14.0103937
  22.9331151  38.0468688  14.0768618  17.7739130  44.2632656  17.4957230
  18.2831360  44.8597163  17.8768535  18.2473402  43.9958629  16.8133649
  17.9182506  44.3118471  17.4511752  28.6869878  52.9360922  15.6515885
  27.9699188  52.7621784  15.1863123  29.3376616  52.7013495  15.1191371
  28.6771729  52.8756715  15.5045103  31.2717849  41.8125511  19.3957190
  30.6009039  42.3555213  19.2670256  31.9657600  42.2820366  19.1538885
  31.2746717  41.9623782  19.3412718  20.1329662  40.8988914  20.3630410
  19.4141651  41.3153047  20.6303274  20.5042024  41.4643153  19.8122048
  20.0821594  41.0438196  20.3213217  23.9683040  54.1722681  22.0806033
  23.5543439  53.5096811  21.6909875  24.6530414  54.3200540  21.5601727
  24.0081412  54.0963339  21.9462530  27.3348334  53.3312766  22.8329650
  26.9364617  53.4415036  22.0650470  26.7199554  53.5394832  23.4156210
  27.1847224  53.3786334  22.8060949  25.9076236  39.9386914  15.7003790
  25.3141076  40.2603910  15.1488357  25.9451514  39.0928009  15.4924896
  25.8250625  39.8611242  15.5886561  28.7834053  39.8966418  19.1305540
  28.5547746  39.9199120  18.2883898  29.0432129  39.0723885  19.2500550
  28.7880241  39.7782498  19.0230738  23.0653281  41.7500892  28.7330640
  22.5532184  41.1422074  29.0915671  22.8932777  42.4657484  29.2004616
  22.9642918  41.7664191  28.8546864  21.8378815  38.4342965  20.4259735
  22.3136182  38.7960045  19.7909917  21.3367415  39.0899432  20.7059878
  21.8344174  38.5837154  20.3736476  35.0690177  47.9064733  16.2172740
  35.4523783  48.6556089  16.4470838  34.2734290  48.1530553  15.9584730
  35.0083959  48.0534427  16.2130314  14.8121061  43.0985332  26.6421492
  14.2647780  42.4285978  26.7602360  15.6013439  42.7315180  26.7064959
  14.8473244  42.9450319  26.6690192  23.8805469  40.5784165  13.7933119
  24.2604433  40.5963794  13.0084234  23.1398065  41.0238153  13.6723967
  23.8274306  40.6465939  13.6596688  31.5090759  38.8866356  19.3808698
  31.5084985  38.7315012  20.2392974  31.3046939  39.7329343  19.3250084
  31.4790537  38.9886977  19.4996638  13.5708030  42.3106140  23.7967515
  13.3929791  41.8582749  24.5222430  13.2827052  43.1132302  23.9805992
  13.5020983  42.3628698  23.9311018  29.2331611  43.5663858  23.0344905
  29.7285276  42.8486853  22.9948925  28.4231387  43.2634655  22.9199392
  29.1875504  43.4161504  23.0118631  24.6790223  47.4161671  15.1841909
  23.8701545  47.0928344  15.1375219  25.1865131  46.7094893  15.1170158
  24.6339889  47.2642987  15.1672204  15.3080500  44.8433864  20.9089274
  14.4426019  44.8319554  20.7972045  15.4079316  44.6564087  21.7560413
  15.1954667  44.8139925  21.0178218  20.9337510  54.6131763  24.4819379
  21.2484069  55.4268151  24.4897161  21.3430923  54.2281981  25.1501538
  21.0405608  54.6760465  24.5823471  23.8724639  36.8045693  16.4760751
  24.6940334  36.9744006  16.2342446  23.4094290  36.9592954  15.7527049
  23.9255801  36.8527426  16.3332395  18.2750530  48.5604871  24.1297988
  18.8795387  48.5200705  23.5011808  18.0677842  49.4076023  24.1602043
  18.3339427  48.6792874  24.0414104  13.5101812  47.5439489  23.9996911
  13.4126090  46.7335760  24.3086967  14.2930682  47.5231282  23.6143179
  13.6117949  47.4206579  23.9883774  44.5607952  58.4835668  18.3103101
  44.5301957  59.3380305  18.4821371  45.1589301  58.1830960  18.8689245
  44.6445110  58.5652164  18.4177904  37.7607637  57.5711319  23.0656032
  36.9045533  57.7319817  23.1165149  37.8075291  56.7003383  23.0861093
  37.6406749  57.4662121  23.0762098  32.1448777  67.1074037  18.8293263
  31.3931676  66.7289575  18.6009308  32.5934789  67.1392470  18.0812074
  32.0998444  67.0559644  18.6850766  41.0701354  63.8397845  32.6716488
  41.7768121  63.3449875  32.8003422  41.2589289  64.2806926  31.9419146
  41.2029259  63.8316195  32.5825533  37.5973737  67.5299406  14.2578810
  37.2625105  68.2076328  13.8223033  38.1100607  67.1404718  13.6695682
  37.6239318  67.5723984  14.1065602  37.1378028  69.4813675  20.1989922
  37.5217407  70.0500574  19.6594697  37.0737169  68.7563185  19.7195738
  37.1851455  69.4589138  20.0483785  33.7233533  67.1192429  21.0956036
  33.8243896  66.3092783  21.4053164  33.1275278  67.0249375  20.4655714
  33.6506072  66.9857457  21.0482274  42.3824527  61.0587970  16.5821411
  42.2664053  61.8095656  17.0113549  43.1780414  60.8011923  16.8317498
  42.4829116  61.1322817  16.6825503  33.5634273  72.0370018  22.4970892
  34.2071728  72.4783182  22.8867050  33.8890528  71.2323444  22.4101151
  33.7066101  71.9835213  22.5416369  26.9198577  63.1412715  20.7208370
  26.6848762  62.3080368  20.6140638  27.0584218  63.4217381  19.9069571
  26.9054240  63.0596219  20.5850725  34.2654852  65.0481993  17.8690754
  34.5870694  65.5887200  17.2652062  34.9126949  64.4778764  18.0013043
  34.4080908  65.0441168  17.7997789  36.3156561  57.0497988  17.9525140
  37.0136725  57.2286115  18.4446604  36.6308893  56.5268327  17.3295530
  36.4651898  56.9991760  17.9327151  36.5044496  63.4368433  17.9404932
  36.9438131  62.8285533  18.3859705  36.3549159  63.0575806  17.1690397
  36.5465962  63.2906904  17.8924099  33.9716139  62.0312445  25.1423757
  34.6165141  61.5384888  24.8234706  34.2117916  62.1737231  25.9689836
  34.1026724  61.9789887  25.2173291  36.5102230  64.8767351  24.7930650
  36.7925473  64.0818756  24.5717406  37.2388391  65.3547938  24.8135711
  36.6591794  64.8301948  24.7633665  40.1053832  61.7895614  14.8935701
  40.0205128  62.6456581  15.0385270  40.5938216  61.5139938  15.5617860
  40.1642730  61.8752936  15.0137783  41.6959832  48.4075907  20.2796026
  41.3813273  49.0979386  20.7116448  41.1786774  48.3520690  19.5781526
  41.5724302  48.5010796  20.2392975  41.0372266  58.4080408  16.3933436
  40.5083737  58.6240042  17.0530742  41.5597286  59.1016547  16.3134406
  41.0360719  58.5423545  16.4789035  46.4920319  63.9826713  21.7666481
  45.6618022  64.1937356  21.9299897  46.4429571  63.1563767  21.4908764
  46.3627054  63.8916319  21.7503846  32.9271873  62.3043625  15.1940904
  32.3429089  62.8093657  15.6006768  32.5241969  62.0786012  14.4537496
  32.7811177  62.3451873  15.1445929  28.4815902  68.0198386  21.9964576
  27.9983480  68.7448876  21.9724159  29.2939220  68.3174516  22.1074733
  28.5306650  68.1700740  22.0091855  34.5530056  66.8130567  24.6014390
  34.0356998  66.4537982  23.9975698  35.2504447  66.2892741  24.6120456
  34.5795637  66.6828255  24.5144649  38.2093648  67.2625381  30.5630563
  38.2976994  67.0751521  31.4108774  38.6383361  66.6162811  30.1635410
  38.2855750  67.1388389  30.6302315  35.7764108  66.5456541  29.5448225
  35.2134943  66.1329151  30.0687887  36.5385131  66.4709447  29.9641369
  35.8058557  66.4733942  29.6841226  37.3849088  58.5509277  13.6709825
  37.6245092  58.7587261  12.8585168  37.7064929  57.7466786  13.7798769
  37.4686246  58.4623378  13.5670378  32.6939378  50.4802673  17.5169363
  33.4485346  50.8480990  17.2786413  32.5166913  50.8542227  18.2848542
  32.7793857  50.5900861  17.5954251  31.3360099  68.5354562  22.1484856
  32.0380679  68.0206551  22.2057612  31.2557582  68.8628714  22.9531731
  31.4283860  68.5068788  22.2757648  32.3839006  58.7730149  31.2765271
  32.5559510  58.6636044  32.1250552  32.9208363  59.4184555  31.0396463
  32.4884010  58.8522151  31.3670367  31.0496443  52.8872992  14.2147476
  30.8672016  53.1044873  13.3888468  31.9122056  53.0012005  14.2706090
  31.1501032  52.9362890  14.1001963  30.6610875  64.7260914  21.6570464
  31.4999774  64.9583847  21.7044225  30.6922644  63.8565226  21.5877499
  30.7892592  64.6317861  21.6535108  31.2863578  65.1461789  25.9583769
  31.8261803  65.0032920  26.6287141  30.6033524  65.5458540  26.3267795
  31.2655732  65.1841460  26.1118191  36.7296162  49.8899403  17.2496500
  37.4582322  49.7115358  16.8034656  36.8191055  50.7317482  17.4603678
  36.8502824  49.9883281  17.2150017  40.7104463  60.8252790  21.1528793
  41.4661978  61.2584304  21.1917702  40.8166787  60.1757560  21.7263430
  40.8374633  60.7930274  21.2426819  43.7484634  64.6526067  21.9031196
  43.3119866  64.6562810  22.6590168  43.4147549  65.3331566  21.4710774
  43.6347254  64.7538523  21.9512029  38.3213707  66.6934400  33.2274347
  39.1054124  66.8065248  33.5930089  38.1210302  65.8675537  33.4233033
  38.4079733  66.5881119  33.3108733  26.6900723  61.3662080  26.1118191
  26.4239138  60.5501197  26.2709181  26.7039287  61.4115236  25.2413706
  26.6525445  61.2518985  26.0071673  30.5958470  56.1647165  12.7269949
  29.8816647  55.8785344  13.1392381  31.0802439  56.5043790  13.3676336
  30.5617833  56.1728814  12.8825584  38.4784101  68.6044502  26.8740802
  37.6799346  68.3644002  27.1314671  38.9270112  68.6558895  27.6207850
  38.4258712  68.5766893  27.0225727  46.8828980  61.3706987  20.7950834
  47.5445414  60.8097656  20.6946742  46.2420392  60.8759018  21.1203525
  46.8857848  61.2143396  20.8283174  37.7705788  64.6677119  13.1031757
  38.1856936  64.3362142  12.4116253  36.9397717  64.4346021  12.9751894
  37.7093796  64.5848375  12.9822604  27.0994137  62.1520860  23.3929935
  26.9169710  62.1267746  22.5402227  27.8343805  62.6219797  23.4318844
  27.1808200  62.2182222  23.2727853  43.1693811  62.3872370  20.5362822
  43.4049400  62.5317568  19.7089673  43.3183374  63.1514778  20.9294336
  43.2259614  62.5211424  20.4726426  44.9984267  61.2274035  18.3732426
  45.3292485  61.7601676  17.7672521  45.5717356  61.2812923  19.0294377
  45.1317947  61.3143604  18.3810208  37.5384838  62.3504947  34.7660991
  36.7457818  62.6648459  34.9513610  37.6533765  62.5656415  33.9281775
  37.4380248  62.4288784  34.6699325  40.2116157  59.0738938  19.0556006
  40.3063011  59.8128232  19.5095632  39.5875000  58.6456414  19.4890571
  40.1325187  59.1200259  19.1864154  38.4668630  62.2525151  29.7046287
  39.0407492  61.6152395  29.8594851  38.3883434  62.2529233  28.8355945
  38.5401865  62.1590262  29.5992698  27.0665047  59.0314360  23.5429002
  27.6438549  58.8950811  24.1821247  26.3679109  58.5750144  23.7974586
  27.0486068  58.9436626  23.6751291  40.4639178  60.9187678  12.2892958
  40.3819340  60.9889865  13.1547945  41.1018898  61.4817422  12.0976699
  40.5459015  61.0126649  12.3882908  33.8232349  60.6848416  21.7567485
  33.5651593  59.8520151  21.7298784  33.8780832  60.9106029  20.9159985
  33.7932127  60.5946187  21.6287621  38.9033399  52.7876867  21.8571577
  38.1989726  52.2986052  22.0155497  38.9518374  52.7999341  20.9860022
  38.8063451  52.7166515  21.7510917  46.1063619  56.4684532  19.8772588
  45.8500184  55.6564474  19.6870471  46.9492933  56.4762100  19.6502775
  46.1929644  56.3496530  19.8157405  22.5423880  57.8826253  20.2576820
  22.6284132  57.5058121  21.0390350  23.1699678  57.5086699  19.7796778
  22.6480431  57.7711735  20.3022297  37.5679288  60.9408132  15.3001565
  38.3819927  61.2323025  15.1884336  37.5038429  60.2867995  14.7259858
  37.6782027  60.8873327  15.1990402  43.7888778  63.6234128  29.7131141
  43.5527416  62.7922193  29.5943201  44.4332007  63.5719736  30.2985985
  43.8483449  63.4931816  29.7817034  33.4387196  64.4129650  20.4273877
  34.0761143  64.1741397  20.9725670  33.8642268  64.6166809  19.6927038
  33.5963363  64.4080660  20.3991034  28.1299839  66.6517986  24.3108181
  28.1703984  66.9232837  23.4827960  28.6894363  67.1759894  24.7265969
  28.2183185  66.7693741  24.2500069  34.0790011  59.6331939  14.7648766
  34.4635164  59.4139646  15.5165311  33.8301632  60.4594885  14.8949843
  34.0992084  59.7230086  14.8949843  44.8125199  63.4078577  25.7759435
  44.5071016  64.1406634  26.1372751  44.0931415  63.0016507  25.4952221
  44.6612541  63.4560310  25.7872572  35.8208668  64.8902072  22.1067663
  35.8947677  64.7277244  22.9609513  36.6378175  65.0792262  21.8628145
  35.9525027  64.8938815  22.1965689  50.5126991  60.0471578  25.1027779
  50.4451491  60.0667537  24.2330366  50.4982653  60.8901905  25.3283450
  50.5005747  60.1745312  25.0080256  29.5814425  65.2359935  19.1362107
  28.7552543  65.4821672  19.0096385  29.6426416  65.1572016  20.0024165
  29.4688592  65.2604884  19.2451051  31.7990449  51.3028876  20.0957547
  30.9312874  51.3751476  20.1615156  32.0865653  52.1050955  20.2845522
  31.7130197  51.4323023  20.1332313  34.3613254  67.8536815  16.8381137
  34.6511552  67.4625797  16.1140363  35.0916735  68.0353520  17.2786412
  34.5120138  67.8230629  16.7963944  48.2985608  58.8215964  23.3774374
  48.8493530  58.1884033  23.6171466  48.2829724  59.3531357  24.0689878
  48.3770805  58.8064912  23.5153232  34.9507999  62.6554561  27.9234267
  34.4519693  63.3670329  28.0019156  35.7608223  62.9755228  27.8852429
  34.9964106  62.8081410  27.9290836  32.3019170  69.8304198  19.9041286
  32.0819465  69.5401553  20.6967953  32.0813692  69.1719153  19.3759199
  32.2366764  69.6903906  19.9430195  31.2136117  61.9177514  22.1696988
  30.9249365  61.2914986  22.7042715  32.0819465  61.8597802  22.2361668
  31.2996369  61.8165059  22.2587943  42.0014015  57.0612298  22.4878970
  41.6578780  56.3402633  22.8386220  42.1007057  56.8526149  21.6457328
  41.9656057  56.9236501  22.4150650  34.4687125  71.2033588  18.6871979
  35.1211183  70.6710030  18.9163005  33.7712734  70.8502240  19.0739853
  34.4617843  71.0723111  18.7784146  31.4168390  63.5572765  18.0939353
  32.1714358  63.9385804  18.3074816  30.8239003  64.0083909  18.5486050
  31.4405104  63.6801593  18.1922231  42.4627044  63.5238002  18.0302958
  43.0285076  64.1831212  17.9461501  41.8154947  63.8687700  18.5019360
  42.4505800  63.6719943  18.0875714  32.7366617  64.7281327  23.4679468
  32.2147370  64.8681618  24.1531333  33.1240637  63.9691991  23.6581586
  32.7170318  64.6366851  23.5980545  29.7257801  54.7787135  17.5374423
  29.4382597  54.4088406  16.8006370  30.4128269  55.2481991  17.2758128
  29.7846698  54.7934105  17.3889499  38.9333622  66.4676786  17.4540037
  38.6920298  65.7344647  17.0467102  39.1134955  67.0163643  16.8006371
  38.9241246  66.4399177  17.2970260  34.1632942  61.7585346  18.8660959
  33.9675725  62.3660080  18.2721262  34.3867288  61.0653290  18.3852633
  34.1667583  61.7462871  18.7077040  32.5611472  58.6440084  18.9841828
  33.2834124  58.8081242  18.5245634  32.0819465  59.3649748  18.8781168
  32.5975203  58.7738313  18.9007442  30.2119089  61.0498156  28.0895968
  30.7240186  61.3282409  27.4404727  29.9255432  61.7887450  28.4558781
  30.2453952  61.2000510  28.0485846  38.9674258  51.8789259  19.0966129
  39.6700611  51.6797008  18.6186087  38.7018447  51.1065202  19.4034972
  39.0320891  51.7352225  19.0711570  44.3962504  60.1871869  21.6499755
  44.3096478  60.3427295  22.5034533  43.9412984  60.8309945  21.2759160
  44.3165760  60.3047624  21.7206861  27.2985995  55.5568348  18.3859704
  27.4002132  56.3594509  18.7140680  28.0941882  55.3555684  18.0882785
  27.4313901  55.6454247  18.3895060  38.2688320  57.5082616  20.2725314
  38.0223034  57.4278367  21.1062103  38.5973443  56.7236084  20.0787842
  38.2809563  57.3808882  20.3672837  42.1636369  64.2165976  24.0612095
  42.0250728  64.9147021  24.5660838  41.3836367  64.0614632  23.7048277
  42.0279596  64.2966142  24.0838369  34.2285347  60.2439335  29.6848297
  34.3728723  60.8240543  29.0491407  34.5760996  60.6215632  30.3898152
  34.3012808  60.3860039  29.6947292  33.3013102  68.4342107  26.5509324
  33.4502666  67.8745023  25.8982728  34.0813104  68.5134108  26.9341843
  33.4387196  68.3627672  26.5106273  43.6589742  63.5744229  14.8228595
  43.2796550  62.7881367  14.8157884  42.9955987  64.1231086  14.6800239
  43.5048216  63.5389053  14.8009391  35.8266403  68.6056750  27.8293815
  35.7510074  67.9365560  28.3844603  35.7556262  69.3074538  28.3434481
  35.8047010  68.6101657  27.9870663  36.4836650  67.1257748  18.6617421
  37.2486541  66.8567392  18.3400085  36.3814740  66.6407759  19.3787484
  36.5818145  67.0147313  18.7197248  39.0055310  64.1569932  10.6417370
  39.7728295  64.2170057  10.2323222  38.5586619  63.5850374  10.1573689
  39.0528737  64.0806508  10.5095080  39.9033106  62.9624588  22.9270102
  39.2278108  62.7309820  23.4283489  39.9125482  62.3545771  22.3012207
  39.8051610  62.8383513  22.9086255  41.9049840  65.8189720  15.1580280
  41.9869678  66.6256707  14.8341731  42.3899583  65.8385680  15.8821054
  41.9886998  65.9410383  15.2167179  35.7146344  60.4974556  23.8250358
  35.2908593  60.6979055  23.0889377  35.5391199  59.6503404  23.9374658
  35.6257224  60.4023338  23.7324048  35.2158037  72.0125069  26.2871816
  35.7053967  71.3135859  26.1047480  34.6442269  71.7148939  26.8747873
  35.2042567  71.8651293  26.3472856  31.0028789  60.9926608  19.2578331
  31.1593408  60.9273411  20.1134323  31.3429382  61.7675160  19.0457010
  31.0762023  61.0975806  19.3532925  37.5407933  60.3684491  18.1271694
  38.0823479  59.8654873  18.5910315  37.8554492  60.3149686  17.3161179
  37.6672330  60.2863912  18.0755506  41.4125041  64.5787139  35.2398606
  42.2259906  64.3072288  35.4003739  41.2520007  64.2794679  34.4358802
  41.5094989  64.4942065  35.1444012  35.7094383  65.7601843  15.4111722
  35.7787203  64.9016381  15.5504722  36.4882838  65.9773724  15.0830747
  35.8347233  65.6654707  15.3828879  40.1001870  68.1839544  19.6248215
  39.7081662  67.8806259  18.9071082  40.2554943  69.0208634  19.4353169
  40.0655460  68.2623381  19.4904712  27.5763050  58.1761558  19.5739098
  27.9562015  58.5946103  18.9099365  27.0018415  58.7575014  19.8807941
  27.5474375  58.3239417  19.5215839  40.2641545  64.7489533  19.5654246
  39.9056200  64.9204176  20.3418278  39.7780256  65.2102739  19.0082244
  40.1400242  64.8428504  19.5979515  35.0529911  60.4288698  12.1054480
  35.3422435  61.2053581  12.3798055  35.1401710  59.9177430  12.8068980
  35.1084167  60.4680617  12.2496978  41.4246285  65.6393429  30.5121447
  42.0626005  65.1453625  30.1783903  40.7820376  65.5670830  29.9273674
  41.4240511  65.5552438  30.3763802  41.4800541  66.3313237  27.1526804
  42.2692919  65.9802302  27.2728885  41.6544139  67.1449626  26.8903437
  41.6220823  66.3999094  27.1314672  31.2193852  59.7421963  24.2054592
  30.3781858  59.6425837  24.4133486  31.4283860  60.5117443  24.5568913
  31.1258544  59.8414006  24.2881907  28.6969419  57.3641500  22.0339343
  28.3026116  57.4384512  21.2589453  28.1409535  57.7499446  22.5847705
  28.5572231  57.4323275  22.0007003  40.3334365  50.3422794  21.7143222
  40.5383959  50.2745102  22.5600219  40.0060789  51.1481615  21.6464399
  40.3149613  50.4508734  21.8302877  34.0876614  54.9803882  18.0196892
  34.3636348  54.2622795  17.6074459  34.6875283  55.5788802  17.8117998
  34.2169878  54.9624253  17.9277653  33.0928868  64.8853083  28.1624288
  32.9849222  64.8955145  29.0286346  33.3024649  65.7107863  27.9729241
  33.1078979  65.0094158  28.2628379  43.5868053  50.8954558  21.1945987
  42.9742367  51.3824960  21.5799719  43.6832228  50.2198049  21.7383639
  43.5105951  50.8672867  21.3324846  37.5887134  52.6517399  16.2943487
  38.0430881  52.8227960  17.0191331  38.0627180  52.0385510  15.8941262
  37.7255454  52.5868285  16.3417248  31.1102660  62.1365725  25.6246225
  30.5190593  62.7775224  25.5949240  31.8723683  62.5603343  25.5977525
  31.1350920  62.2941564  25.6161372  47.2293081  61.9671495  26.6223504
  47.2876205  62.4158144  27.3683480  46.5959549  62.3770308  26.1853584
  47.1444376  62.0945230  26.6676052  40.8692176  67.5875037  23.0578250
  40.6711864  68.0765851  22.3634461  40.2479887  67.7916278  23.6362383
  40.7479740  67.6891575  23.0401473  34.9300154  59.3559934  17.3988494
  35.6742199  59.7434210  17.6371444  35.0760850  58.5117359  17.5628982
  35.0610739  59.2890407  17.4582464  39.8461530  55.8221962  16.3608167
  39.3184548  55.9050706  15.6713876  40.3057238  56.5639833  16.3572812
  39.8363380  55.9442624  16.2582862  46.1819948  56.7689240  22.6618453
  45.9429718  56.7285074  21.8239238  46.3453849  57.6160392  22.7884174
  46.1710251  56.8881325  22.5571935  31.8394595  54.0924481  11.3849062
  31.4907399  54.7444206  11.8480612  31.3591041  54.0781594  10.6572934
  31.7164839  54.1867535  11.3460154  28.3678522  63.8099823  26.7680142
  27.8378446  63.1192262  26.8175116  28.6403615  63.8010008  25.9392850
  28.3303244  63.7066955  26.6527558  39.3998612  64.3925525  15.4917824
  40.1232811  64.8583638  15.3482397  38.9599203  64.4599135  14.7415421
  39.4414304  64.4709362  15.3602606  38.5684767  61.2523067  26.7418513
  37.9541760  60.7081118  27.0367148  39.0852052  60.7387304  26.2624329
  38.5540430  61.0959477  26.7142742  37.8081064  62.3227338  24.4762812
  37.3808672  61.6977056  24.0428247  37.8006009  62.0402259  25.3021819
  37.7440206  62.1880118  24.5342639  23.6474364  60.4827587  24.1248490
  23.5417813  60.4374431  23.2600574  22.8974584  60.8281368  24.4062775
  23.5209967  60.5268495  24.0385820  34.5997709  61.4927650  32.1731385
  33.7493340  61.6299365  32.3089030  34.7625837  60.7591429  32.6179086
  34.4981573  61.4041751  32.2586984  32.2118503  56.7183012  16.8975107
  32.3521465  57.2155476  17.6003748  32.7101036  56.0169306  17.0389321
  32.3059584  56.6884990  17.0226686  32.2418726  57.5850123  14.2267684
  32.8763805  58.1810548  14.1617145  32.3244337  57.2853580  15.0413554
  32.3475277  57.6291031  14.3370770  33.8197709  53.5164098  14.2013126
  34.1413550  53.0367181  13.5472388  34.0824652  54.3263744  14.0103937
  33.9063734  53.5653996  14.0768618  37.0494681  64.5382972  27.7211942
  36.5419773  65.0918819  28.1652572  36.7521328  64.5991262  26.9030716
  36.9299566  64.6289284  27.6660398  28.7471714  59.7817963  17.4957230
  29.2563943  60.3782471  17.8768535  29.2205986  59.5143937  16.8133649
  28.8915089  59.8303779  17.4511752  39.6602462  68.4546230  15.6515885
  38.9431772  68.2807092  15.1863123  40.3109199  68.2198802  15.1191371
  39.6504312  68.3942023  15.5045103  42.2450433  57.3310819  19.3957190
  41.5741623  57.8740521  19.2670256  42.9390183  57.8005674  19.1538885
  42.2479301  57.4809090  19.3412718  36.2937167  69.4707531  24.6268949
  36.0702821  68.7126360  24.9952975  35.8047010  69.5005552  23.9049388
  36.1880616  69.3629755  24.5745690  42.4078560  53.7866702  22.3047564
  42.7606171  53.3596425  22.9793362  41.5493362  53.7017546  22.4348640
  42.3328005  53.7111443  22.4242574  31.1062245  56.4174222  20.3630410
  30.3874235  56.8338355  20.6303274  31.4774608  56.9828461  19.8122048
  31.0554177  56.5623503  20.3213217  38.3508156  63.6389263  32.1780882
  38.3104011  62.9938940  31.5926038  39.1631474  63.5825880  32.4906294
  38.4651310  63.5348230  32.1377832  34.9415624  69.6907989  22.0806033
  34.5276022  69.0282119  21.6909875  35.6262998  69.8385848  21.5601727
  34.9813995  69.6148647  21.9462530  38.3080918  68.8498074  22.8329650
  37.9097201  68.9600344  22.0650470  37.6932137  69.0580140  23.4156210
  38.1579807  68.8971642  22.8060949  36.8808820  55.4572222  15.7003790
  36.2873659  55.7789218  15.1488357  36.9184098  54.6113317  15.4924896
  36.7983209  55.3796550  15.5886561  43.8402621  48.9085114  23.2331876
  43.3333485  48.2014254  23.1653054  44.6370054  48.5778303  23.3632953
  43.8829860  48.7558266  23.2430871  39.7566636  55.4151726  19.1305540
  39.5280329  55.4384428  18.2883898  40.0164713  54.5909193  19.2500550
  39.7612824  55.2967806  19.0230738  46.0422761  63.4250041  16.2172740
  46.4256366  64.1741397  16.4470838  45.2466874  63.6715860  15.9584730
  45.9816543  63.5719735  16.2130314  34.8538052  56.0969472  13.7933119
  35.2337017  56.1149102  13.0084234  34.1130648  56.5423461  13.6723967
  34.8006890  56.1651247  13.6596688  42.4823343  54.4051664  19.3808698
  42.4817569  54.2500320  20.2392974  42.2779523  55.2514651  19.3250084
  42.4523120  54.5072284  19.4996638  24.5440614  57.8291448  23.7967515
  24.3662375  57.3768057  24.5222430  24.2559636  58.6317610  23.9805992
  24.4753567  57.8814006  23.9311018  40.2064195  59.0849165  23.0344905
  40.7017860  58.3672161  22.9948925  39.3963970  58.7819963  22.9199392
  40.1608088  58.9346812  23.0118631  35.6522806  62.9346979  15.1841909
  34.8434129  62.6113652  15.1375219  36.1597715  62.2280201  15.1170158
  35.6072473  62.7828295  15.1672204  26.2813083  60.3619172  20.9089274
  25.4158603  60.3504862  20.7972045  26.3811899  60.1749395  21.7560413
  26.1687250  60.3325233  21.0178218  31.9070093  70.1317071  24.4819379
  32.2216652  70.9453459  24.4897161  32.3163507  69.7467289  25.1501538
  32.0138191  70.1945773  24.5823471  38.8594613  65.5487117  22.0523191
  39.3305791  66.2627380  22.2213176  39.1954791  64.9485867  22.5883061
  38.9789728  65.5658582  22.1555567  40.9471598  67.1588431  34.2315263
  41.0568563  66.3696991  34.5872010  41.2762494  67.0694367  33.4289601
  41.0124003  67.0294284  34.1657654  39.4968559  65.3405051  28.8150884
  38.9489505  64.7162935  28.5470949  39.9581588  65.5299323  28.0994963
  39.4835769  65.2764102  28.6701315  34.8457223  52.3231001  16.4760751
  35.6672917  52.4929314  16.2342446  34.3826874  52.4778262  15.7527049
  34.8988385  52.3712734  16.3332395  29.2483113  64.0790179  24.1297988
  29.8527971  64.0386013  23.5011808  29.0410426  64.9261331  24.1602043
  29.3072011  64.1978181  24.0414104  39.0626886  66.3456124  25.3460225
  39.8825259  66.2019090  25.6076520  38.7820963  66.9702323  25.8876663
  39.1423629  66.4166476  25.4648164  24.4834396  63.0624796  23.9996911
  24.3858674  62.2521068  24.3086967  25.2663265  63.0416590  23.6143179
  24.5850532  62.9391887  23.9883774  48.7340221  73.0896627  23.0656032
  47.8778116  73.2505125  23.1165149  48.7807875  72.2188691  23.0861093
  48.6139332  72.9847429  23.0762098  51.5792042  75.1488671  25.7087683
  52.1248002  75.8273757  25.7681653  51.5208918  75.0076132  24.8489265
  51.6507956  75.2280672  25.5899744  40.1921248  70.8283754  23.6192677
  39.5726280  70.2376401  23.4502692  40.0905112  71.4195189  22.9857000
  40.0858924  70.8287837  23.4997667  39.9190381  74.3736036  25.8636246
  39.7949078  74.9598481  26.4986065  40.5708666  73.8796231  26.1648521
  39.9964031  74.3874840  26.0022176  45.4616008  67.9375692  22.0346415
  45.1319338  68.3886836  21.3650114  44.7861009  67.8591856  22.5819421
  45.3126444  67.9926828  22.0169638  52.6692415  63.9261215  20.2796026
  52.3545856  64.6164694  20.7116448  52.1519357  63.8705998  19.5781526
  52.5456886  64.0196104  20.2392975  43.6671962  65.9987981  17.5169363
  44.4217930  66.3666298  17.2786413  43.4899496  66.3727535  18.2848542
  43.7526440  66.1086169  17.5954251  56.9606860  72.1482421  25.5616902
  56.1235282  72.2184608  25.7964496  56.9295091  72.1506916  24.6891204
  56.8325143  72.1592648  25.4676450  43.3571589  74.2915457  31.2765271
  43.5292093  74.1821352  32.1250552  43.8940947  74.9369862  31.0396463
  43.4616593  74.3707459  31.3670367  42.0229026  68.4058300  14.2147476
  41.8404600  68.6230181  13.3888468  42.8854639  68.5197313  14.2706090
  42.1233616  68.4548198  14.1001963  47.7028746  65.4084711  17.2496500
  48.4314906  65.2300666  16.8034656  47.7923638  66.2502790  17.4603678
  47.8235408  65.5068589  17.2150017  54.6414700  67.2125203  24.1460624
  55.2840609  67.2823308  24.7322540  54.8937721  66.5454426  23.6440166
  54.7736832  67.1251552  24.1587904  42.4131913  70.4225766  28.7585198
  41.7203710  69.9522746  29.0045930  43.0292240  70.1964071  29.3326906
  42.4016443  70.3192898  28.8794351  41.1372472  74.3891170  29.9012044
  41.8612444  74.3744201  30.3876938  41.2388608  75.0986526  29.4034012
  41.2590681  74.4915874  29.8990830  48.5117421  77.8690255  34.7660991
  47.7190402  78.1833767  34.9513610  48.6266348  78.0841723  33.9281775
  48.4112832  77.9474092  34.6699325  49.4401214  77.7710459  29.7046287
  50.0140076  77.1337703  29.8594851  49.3616018  77.7714541  28.8355945
  49.5134449  77.6775570  29.5992698  38.0397630  74.5499668  23.5429002
  38.6171133  74.4136119  24.1821247  37.3411692  74.0935452  23.7974586
  38.0218652  74.4621934  23.6751291  44.7964933  76.2033724  21.7567485
  44.5384177  75.3705459  21.7298784  44.8513415  76.4291337  20.9159985
  44.7664710  76.1131495  21.6287621  49.8765983  68.3062175  21.8571577
  49.1722309  67.8171360  22.0155497  49.9250957  68.3184649  20.9860022
  49.7796034  68.2351823  21.7510917  43.7699645  73.7571486  22.2432379
  43.1949236  73.9163655  22.8796340  43.3935321  73.1206895  21.7800830
  43.6302457  73.6869299  22.2686938  47.4372933  72.2294836  27.1024758
  47.0487366  71.8049053  26.4476949  46.7727632  72.4776985  27.6101785
  47.2819861  72.2033557  27.0812626  33.5156464  73.4011561  20.2576820
  33.6016715  73.0243429  21.0390350  34.1432261  73.0272007  19.7796778
  33.6213015  73.2897043  20.3022297  51.2599295  65.9269464  24.6148742
  51.6409807  65.2447635  25.0016616  50.4562579  65.6379066  24.4324407
  51.1975757  65.7836513  24.6452798  45.2191135  68.4323663  34.4811351
  44.9044576  69.2023225  34.2180913  44.8981068  67.8693919  33.8963578
  45.1250054  68.4633931  34.3552700  42.7723032  66.8214184  20.0957547
  41.9045458  66.8936784  20.1615156  43.0598237  67.6236263  20.2845522
  42.6862780  66.9508331  20.1332313  51.8955921  66.9692043  28.4268869
  52.6409513  66.7801854  28.0132294  51.4793226  67.4950281  27.8682725
  51.9440895  67.0194189  28.2833442  52.9746598  72.5797606  22.4878970
  52.6311364  71.8587941  22.8386220  53.0739641  72.3711457  21.6457328
  52.9388641  72.4421809  22.4150650  44.8507641  71.0320914  33.2196565
  44.0407416  71.3378693  33.1086408  45.3282327  71.7526496  33.3349149
  44.8011120  71.1835515  33.2203636  40.6990384  70.2972443  17.5374423
  40.4115180  69.9273714  16.8006370  41.3860853  70.7667299  17.2758128
  40.7579282  70.3119413  17.3889499  43.5344056  74.1625392  18.9841828
  44.2566708  74.3266550  18.5245634  43.0552049  74.8835056  18.8781168
  43.5707787  74.2923621  18.9007442  51.4937564  70.4989190  24.3638513
  50.6548664  70.5250469  24.1276776  51.5641931  71.1459926  24.9443859
  51.3805957  70.5985316  24.4147630  49.9406842  67.3974567  19.0966129
  50.6433195  67.1982316  18.6186087  49.6751031  66.6250510  19.4034972
  50.0053474  67.2537533  19.0711570  38.2718579  71.0753656  18.3859704
  38.3734715  71.8779817  18.7140680  39.0674466  70.8740992  18.0882785
  38.4046485  71.1639555  18.3895060  44.7035398  68.6609853  28.1497009
  44.5118595  68.6764987  28.9996433  45.5533994  68.8573527  28.1263664
  44.8011120  68.6924204  28.2720304  39.0882311  71.1900834  26.1280826
  38.9467803  70.3384775  26.2525334  39.3722874  71.2329495  25.3043032
  39.1090157  71.0700584  26.0248450  49.2420903  73.0267924  20.2725314
  48.9955618  72.9463675  21.1062103  49.5706027  72.2421392  20.0787842
  49.2542147  72.8994190  20.3672837  45.2017931  75.7624643  29.6848297
  45.3461306  76.3425851  29.0491407  45.5493579  76.1400940  30.3898152
  45.2745392  75.9045347  29.6947292  47.3737848  74.9614811  27.4673429
  46.6261162  75.1545826  27.0621707  47.5279373  74.1360031  27.2297550
  47.2860276  74.8679923  27.3718835  47.6139625  68.8565362  28.3568832
  48.0712239  69.5889336  28.4841625  47.6895954  68.4331827  29.1156088
  47.6930595  68.9022600  28.4869909  39.8572616  69.1031182  29.4458276
  39.3214806  68.4911540  29.7619043  39.9190381  69.6779318  30.0991943
  39.7868249  69.0978109  29.5893703  52.0866951  62.0355237  22.2262675
  52.2050519  62.4931700  21.4929978  51.9129127  61.2300498  21.9398893
  52.0786122  61.9849009  22.0763609  45.4922003  70.8467466  25.2010656
  44.7018078  70.6658926  25.5227992  45.8882626  70.0694418  25.1840951
  45.4338879  70.7054927  25.2463205  48.0059833  73.3227725  29.6834155
  47.9418975  74.1837681  29.5554292  48.1457021  73.0059718  28.8829707
  48.0175303  73.4027892  29.5462368  46.6878927  76.0159864  23.8250358
  46.2641176  76.2164363  23.0889377  46.5123782  75.1688712  23.9374658
  46.5989808  75.9208646  23.7324048  49.6629786  70.7806104  28.1793995
  49.8771756  70.1417018  27.6257348  49.0463685  71.2251928  27.7501856
  49.6035115  70.7516248  28.0344426  38.5495634  73.6946866  19.5739098
  38.9294599  74.1131411  18.9099365  37.9750998  74.2760322  19.8807941
  38.5206959  73.8424725  19.5215839  51.8268874  72.3895169  29.1177302
  51.0145556  72.0821059  29.1990474  52.2858809  71.9094169  29.6820014
  51.7749259  72.2731661  29.2131896  49.0544515  63.8906040  23.1681337
  48.1838073  63.8644761  23.1214647  49.3084856  63.7183232  22.3507183
  48.9638075  63.8616183  23.0401474  48.9222382  73.7955240  33.9006004
  49.3922013  74.4197357  34.2873878  48.9684262  73.1272216  34.4599219
  48.9990258  73.7889921  34.0406075  46.0793655  65.9012268  24.6254808
  45.5632144  65.2092459  24.7506387  45.5187584  66.5683045  24.5717406
  45.9200169  65.8975526  24.6360874  48.1485889  66.4405228  26.4547660
  47.7617642  66.4654259  27.2361190  47.6618826  65.8746907  26.0022177
  48.0198398  66.3600979  26.5035564  54.1235868  73.0067883  25.0787362
  53.6963476  72.9194232  24.3235462  53.4861921  73.1145658  25.6642207
  53.9665476  73.0100543  25.0532804  47.8143031  63.3272213  28.7457920
  48.4436148  63.8632514  28.4678991  47.9828893  63.2349572  29.5971486
  47.9320825  63.3933576  28.8306448  47.6156945  68.1143408  31.0184332
  48.4430375  67.8428557  31.0742946  47.6364791  68.9104250  31.3748150
  47.7409795  68.1923162  31.0799515  42.1926435  75.2607271  24.2054592
  41.3514442  75.1611145  24.4133486  42.4016443  76.0302751  24.5568913
  42.0991128  75.3599314  24.2881907  39.6702002  72.8826808  22.0339343
  39.2758700  72.9569820  21.2589453  39.1142119  73.2684754  22.5847705
  39.5304815  72.9508583  22.0007003  51.3066949  65.8608102  21.7143222
  51.5116542  65.7930410  22.5600219  50.9793373  66.6666923  21.6464399
  51.2882197  65.9694042  21.8302877  46.0043100  73.1888670  23.4552190
  45.7006238  72.6344658  24.0562598  45.3022521  73.3680880  22.9680224
  45.8559310  73.1333453  23.4721896  45.0609197  70.4989190  18.0196892
  45.3368932  69.7808103  17.6074459  45.6607866  71.0974110  17.8117998
  45.1902462  70.4809561  17.9277653  54.5600637  66.4139866  21.1945987
  53.9474950  66.9010268  21.5799719  54.6564812  65.7383357  21.7383639
  54.4838534  66.3858175  21.3324846  48.5619718  68.1702707  16.2943487
  49.0163464  68.3413268  17.0191331  49.0359763  67.5570818  15.8941262
  48.6988038  68.1053593  16.3417248  42.4795866  68.8153031  26.2914243
  42.9397347  68.8891960  27.0289367  42.5251973  69.6134285  25.9414064
  42.5546421  68.9447178  26.3486999  44.1279216  69.4819726  30.8586270
  43.7364781  68.8353073  31.2942048  44.2965078  70.0731161  31.4780525
  44.0950126  69.4733994  31.0148976  47.8212313  66.6695501  22.4320355
  46.9748358  66.8418308  22.3061705  47.8183446  65.8644844  22.7686184
  47.6959463  66.5756530  22.4631482  48.8910614  70.4470715  23.2982413
  48.4170568  69.9212477  23.8087724  49.2628749  69.9000188  22.7297275
  48.8760502  70.2886712  23.2897561  39.2683644  72.4442222  28.6665959
  40.1309257  72.3437931  28.5803289  38.9375427  71.8636931  28.1051531
  39.3468840  72.3433848  28.5711365  42.6285430  71.2684671  25.3276377
  42.0038500  71.2803063  24.7202330  42.2931025  71.7444846  25.9767618
  42.4870921  71.3403188  25.3332946  49.5417351  76.7708375  26.7418513
  48.9274344  76.2266426  27.0367148  50.0584636  76.2572612  26.2624329
  49.5273013  76.6144784  26.7142742  48.7813648  77.8412645  24.4762812
  48.3541256  77.2162364  24.0428247  48.7738592  77.5587567  25.3021819
  48.7172789  77.7065426  24.5342639  41.8976175  72.8777818  27.5451246
  42.0569662  72.1221143  27.9502968  41.7169069  73.4268758  28.1991983
  41.8941534  72.8471632  27.7013952  49.8396478  65.0439054  28.1002035
  49.3437039  65.2402728  27.4093602  50.5965540  65.4431722  27.9290837
  49.8783303  65.1316788  27.9722172  47.1099358  68.7181400  24.6905346
  47.1341845  68.1841512  24.0018126  47.3610831  68.2098709  25.3530936
  47.1509276  68.5642304  24.6869990  43.3900680  67.4452218  24.0711090
  43.4299051  67.9461425  24.7845798  42.5650344  67.5362612  23.8017013
  43.2740206  67.5334035  24.1361628  45.5730293  77.0112958  32.1731385
  44.7225923  77.1484672  32.3089030  45.7358420  76.2776736  32.6179086
  45.4714156  76.9227059  32.2586984  44.8115043  73.9612728  26.3684989
  43.9806973  74.1286546  26.1620237  44.7566560  73.5848679  27.1533874
  44.6804458  73.9302459  26.4533517  42.6198826  67.4521621  32.0041400
  43.2451530  66.9083754  32.2770832  42.1649306  66.9716539  31.4349190
  42.6447087  67.3011102  31.9602994  43.1851087  72.2368320  16.8975107
  43.3254048  72.7340784  17.6003748  43.6833620  71.5354614  17.0389321
  43.2792168  72.2070298  17.0226686  50.1889447  68.4221600  26.5636605
  50.6144519  67.9694126  25.9520131  49.5746440  67.8681671  26.8401392
  50.1618093  68.2735576  26.5141630  39.7204297  75.3003271  17.4957230
  40.2296527  75.8967779  17.8768535  40.1938570  75.0329245  16.8133649
  39.8647673  75.3489087  17.4511752  48.6283670  64.8936700  19.9727182
  47.9851988  64.7434346  20.5412320  48.2883077  64.6479045  19.2076286
  48.4828747  64.8348822  19.9430197  53.3811144  69.3052010  22.3047564
  53.7338754  68.8781733  22.9793362  52.5225946  69.2202854  22.4348640
  53.3060589  69.2296751  22.4242574  42.0794829  71.9359530  20.3630410
  41.3606818  72.3523663  20.6303274  42.4507191  72.5013769  19.8122048
  42.0286761  72.0808811  20.3213217  51.3794410  72.5687379  26.2532406
  51.3592337  72.3870674  27.1067185  51.4273611  73.4399397  26.2291989
  51.3829051  72.6703917  26.3755701  54.8135204  64.4270422  23.2331876
  54.3066069  63.7199562  23.1653054  55.6102638  64.0963611  23.3632953
  54.8562443  64.2743573  23.2430871  50.7299220  70.9337034  19.1305540
  50.5012913  70.9569736  18.2883898  50.9897296  70.1094501  19.2500550
  50.7345408  70.8153114  19.0230738  45.0118448  72.7871507  28.7330640
  44.4997352  72.1792690  29.0915671  44.8397945  73.5028100  29.2004616
  44.9108085  72.8034807  28.8546864  39.8584163  71.2309083  31.3833002
  39.6886753  71.8910458  30.8381208  39.4150113  71.4415644  32.1045491
  39.7683497  71.3595065  31.4094631  43.7843983  69.4713581  20.4259735
  44.2601349  69.8330660  19.7909917  43.2832582  70.1270048  20.7059878
  43.7809341  69.6207769  20.3736476  48.8887519  70.7095752  31.1732896
  49.4458949  70.4809562  30.5411361  48.5648584  71.4701418  30.8968108
  48.9233929  70.7879589  31.0389393  36.7586228  74.1355948  26.6421492
  36.2112947  73.4656594  26.7602360  37.5478606  73.7685796  26.7064959
  36.7938411  73.9820935  26.6690192  46.6070636  73.7963405  32.1384903
  47.3581963  74.1115082  32.4524457  46.7993213  73.5942576  31.3118824
  46.7462050  73.8130787  32.0628298  53.4555926  69.9236972  19.3808698
  53.4550153  69.7685628  20.2392974  53.2512106  70.7699959  19.3250084
  53.4255704  70.0257592  19.4996638  51.1796778  74.6034473  23.0344905
  51.6750444  73.8857468  22.9948925  50.3696554  74.3005271  22.9199392
  51.1340672  74.4532120  23.0118631  46.7496692  65.8399896  29.0081286
  46.8824597  65.0430889  29.3362262  47.1341844  66.3666299  29.5879562
  46.8253020  65.7999812  29.1424789  49.8229047  62.7630222  25.6062379
  49.0175010  62.6527952  25.9230218  49.6935782  62.8642678  24.7492245
  49.6849180  62.7613892  25.5270420  53.2795007  68.9275714  26.2002076
  52.6957996  69.4284920  25.7879644  53.5999301  68.4205270  25.5666399
  53.2408183  68.9267549  26.0460583  45.8189806  67.8416309  16.4760751
  46.6405501  68.0114622  16.2342446  45.3559457  67.9963570  15.7527049
  45.8720969  67.8898042  16.3332395  44.4085138  65.8359071  27.2559180
  44.9529551  65.4950198  27.8463521  44.4622074  66.6944532  27.3980464
  44.4974258  65.9114330  27.3641053  18.8187011   9.7405360  19.6056535
  19.5253778   9.2457391  19.7343469  19.0074946  10.1814441  18.8759193
  18.9514916   9.7323710  19.5165580  15.9579305  13.1632896  17.4970610
  16.0462651  12.9759037  18.3448820  16.3869017  12.5170326  17.0975457
  16.0341407  13.0395904  17.5642362  13.5249765  12.4464056  16.4788272
  12.9620600  12.0336666  17.0027933  14.2870788  12.3716962  16.8981416
  13.5544213  12.3741457  16.6181273  16.0699364  12.5941915  20.1614394
  16.8539781  12.7072763  20.5270136  15.8695959  11.7683052  20.3573079
  16.1565390  12.4888635  20.2448780  16.2269758  14.5052017  13.8080849
  15.4285003  14.2651518  14.0654718  16.6755769  14.5566410  14.5547897
  16.1744369  14.4774409  13.9565773  15.2870494   8.2512462  21.7001037
  14.4943475   8.5655974  21.8853657  15.4019422   8.4663931  20.8621822
  15.1865905   8.3296299  21.6039372  21.5374435   9.5241644  16.6471187
  21.3013072   8.6929709  16.5283248  22.1817664   9.4727251  17.2326032
  21.5969106   9.3939332  16.7157081  13.5752060  14.5064265  14.7633862
  13.4995731  13.8373076  15.3184650  13.5041919  15.2082053  15.2774528
  13.5532666  14.5109172  14.9210710  12.9643694  17.9132585  13.2211862
  13.4539624  17.2143374  13.0387527  12.3927926  17.6156455  13.8087920
  12.9528224  17.7658808  13.2812903  19.1610697  10.4794654  22.1738653
  19.9745563  10.2079803  22.3343786  19.0005664  10.1802194  21.3698849
  19.2580646  10.3949580  22.0784059  15.6975455   4.1777448  20.8346051
  16.1675086   4.8019564  21.2213925  15.7437335   3.5094423  21.3939265
  15.7743331   4.1712128  20.9746122  19.1731941  11.5400944  17.4461494
  19.8111662  11.0461140  17.1123950  18.5306033  11.4678345  16.8613720
  19.1726168  11.4559953  17.3103849  19.2286198  12.2320753  14.0866850
  20.0178576  11.8809817  14.2068932  19.4029796  13.0457141  13.8243484
  19.3706480  12.3006610  14.0654718  12.3483366   7.3935166  19.1071432
  11.4978996   7.5306880  19.2429076  12.5111494   6.6598944  19.5519133
  12.2467229   7.3049267  19.1927031  16.0993813   9.5396778  19.1120929
  16.0589668   8.8946455  18.5266085  16.9117131   9.4833396  19.4246341
  16.2136966   9.4355745  19.0717878  18.6957254  13.0595946  21.1655310
  18.8054220  12.2704507  21.5212057  19.0248151  12.9701882  20.3629648
  18.7609660  12.9301799  21.0997701  17.2454216  11.2412567  15.7490931
  16.6975162  10.6170450  15.4810996  17.7067245  11.4306839  15.0335010
  17.2321426  11.1771617  15.6041362  33.2826193  19.9028491   5.2443148
  33.2520197  20.7573128   5.4161418  33.8807542  19.6023784   5.8029292
  33.3663351  19.9844988   5.3517951  26.4825878  18.9904142   9.9996079
  25.6263773  19.1512640  10.0505195  26.5293531  18.1196206  10.0201140
  26.3624989  18.8854944  10.0102145  20.8667017  28.5266860   5.7633310
  20.1149917  28.1482398   5.5349355  21.3153029  28.5585294   5.0152121
  20.8216684  28.4752467   5.6190812  25.8596268  30.9006498   7.1329969
  26.2435648  31.4693397   6.5934744  25.7955410  30.1756009   6.6535785
  25.9069696  30.8781962   6.9823831  29.3277699  21.0496186  12.6427730
  29.8733659  21.7281273  12.7021700  29.2694575  20.9083647  11.7829312
  29.3993613  21.1288188  12.5239791  22.4451773  28.5385252   8.0296083
  22.5462136  27.7285606   8.3393210  21.8493519  28.4442199   7.3995761
  22.3724312  28.4050280   7.9822321  31.1042767  22.4780793   3.5161458
  30.9882293  23.2288479   3.9453596  31.8998654  22.2204746   3.7657545
  31.2047357  22.5515640   3.6165550  22.2852513  33.4562841   9.4310939
  22.9289969  33.8976005   9.8207097  22.6108769  32.6516268   9.3441198
  22.4284342  33.4028036   9.4756416  22.9873093  26.4674816   4.8030800
  23.3088934  27.0080024   4.1992109  23.6345189  25.8971588   4.9353090
  23.1299148  26.4633991   4.7337836  17.6676038  20.2743551  12.7976293
  17.5434735  20.8605997  13.4326112  18.3194323  19.7803747  13.0988568
  17.7449688  20.2882355  12.9362222  25.2262736  24.8561256   4.8744979
  25.6656372  24.2478357   5.3199751  25.0767399  24.4768629   4.1030444
  25.2684202  24.7099727   4.8264146  22.6934379  23.4505268  12.0763804
  23.3383382  22.9577711  11.7574753  22.9336156  23.5930055  12.9029882
  22.8244964  23.3982710  12.1513337  25.2320471  26.2960174  11.7270697
  25.5143713  25.5011580  11.5057453  25.9606631  26.7740761  11.7475758
  25.3810034  26.2494771  11.6973712  35.2138559  25.4019536   8.7006527
  34.3836262  25.6130180   8.8639944  35.1647811  24.5756591   8.4248811
  35.0845294  25.3109142   8.6843893  17.2034142  29.4391210   8.9304623
  16.7201721  30.1641699   8.9064206  18.0157461  29.7367340   9.0414780
  17.2524890  29.5893563   8.9431902  23.2748297  28.2323390  11.5354437
  22.7575238  27.8730805  10.9315745  23.9722688  27.7085565  11.5460503
  23.3013878  28.1021078  11.4484696  20.0578340  29.9547385   9.0824902
  20.7598919  29.4399375   9.1397659  19.9775823  30.2821537   9.8871778
  20.1502100  29.9261612   9.2097695  34.7092517  18.0489937  12.4956949
  33.8720938  18.1192124  12.7304543  34.6780748  18.0514432  11.6231251
  34.5810800  18.0600164  12.4016497  21.1057246  20.1922972  18.2105317
  21.2777750  20.0828867  19.0590599  21.6426604  20.8377378  17.9736510
  21.2102250  20.2714974  18.3010414  19.3829115  26.1453737   8.5910510
  20.2218015  26.3776670   8.6384272  19.4140884  25.2758049   8.5217546
  19.5110833  26.0510684   8.5875155  20.0081818  26.5654613  12.8923816
  20.5480043  26.4225744  13.5627188  19.3251764  26.9651363  13.2607842
  19.9873972  26.6034284  13.0458238  29.4322703  22.2445613   8.0868840
  30.1880218  22.6777128   8.1257749  29.5385027  21.5950383   8.6603476
  29.5592874  22.2123097   8.1766866  32.4702874  26.0718891   8.8371243
  32.0338106  26.0755633   9.5930215  32.1365790  26.7524389   8.4050821
  32.3565494  26.1731346   8.8852076  15.4118963  22.7854903  13.0458237
  15.1457378  21.9694020  13.2049228  15.4257527  22.8308059  12.1753753
  15.3743686  22.6711808  12.9411719  32.3900357  13.1132718  11.0800671
  33.0326266  13.1830823  11.6662587  32.6423378  12.4461941  10.5780213
  32.5222489  13.0259067  11.0927950  20.1617570  16.3233282  15.6925245
  19.4689366  15.8530261  15.9385977  20.7777897  16.0971586  16.2666952
  20.1502100  16.2200414  15.8134398  27.2002341  30.0237325  13.8080849
  26.4017587  29.7836825  14.0654718  27.6488353  30.0751718  14.5547897
  27.1476952  29.9959717  13.9565773  35.6047220  22.7899810   7.7290881
  36.2663654  22.2290479   7.6286789  34.9638632  22.2951841   8.0543572
  35.6076088  22.6336219   7.7623221  15.8212377  23.5713683  10.3269982
  15.6387950  23.5460569   9.4742274  16.5562046  24.0412621  10.3658891
  15.9026441  23.6375045  10.2067900  31.8912051  23.8065193   7.4702869
  32.1267640  23.9510392   6.6429720  32.0401615  24.5707601   7.8634383
  31.9477854  23.9404247   7.4066473  18.8858129  20.2898686  16.8352090
  19.6098101  20.2751716  17.3216985  18.9874265  20.9994041  16.3374059
  19.0076338  20.3923389  16.8330877  33.7202508  22.6466859   5.3072473
  34.0510725  23.1794499   4.7012568  34.2935596  22.7005746   5.9634424
  33.8536187  22.7336428   5.3150255  28.9334397  20.4931761   5.9896053
  29.0281251  21.2321056   6.4435679  28.3093240  20.0649237   6.4230618
  28.8543427  20.5393082   6.1204201  15.7883287  20.4507184  10.4769048
  16.3656790  20.3143634  11.1161294  15.0897349  19.9942968  10.7314633
  15.7704309  20.3629450  10.6091338  22.5450589  22.1041239   8.6907532
  22.2869834  21.2712974   8.6638831  22.5999072  22.3298852   7.8500032
  22.5150367  22.0139010   8.5627668  21.5185302  19.6579002   9.1772426
  20.9434893  19.8171170   9.8136387  21.1420978  19.0214411   8.7140877
  21.3788114  19.5876815   9.2026985  25.1858590  18.1302351  14.0364805
  24.7973023  17.7056569  13.3816996  24.5213289  18.3784501  14.5441831
  25.0305518  18.1041072  14.0152673  34.8281859  17.8877356   6.8112635
  34.5718424  17.0757297   6.6210518  35.6711173  17.8954923   6.5842822
  34.9147885  17.7689353   6.7497452  29.0084952  11.8276980  11.5488789
  29.3895463  11.1455151  11.9356663  28.2048236  11.5386582  11.3664453
  28.9461413  11.6844028  11.5792845  22.1605437  25.8322473   7.3613924
  22.7979384  25.5934220   7.9065717  22.5860508  26.0359632   6.6267084
  22.3181603  25.8273483   7.3331081  16.8518079  28.0710809  11.2448228
  16.8922224  28.3425661  10.4168007  17.4112603  28.5952718  11.6606015
  16.9401425  28.1886565  11.1840116  22.9676792  14.3331178  21.4151397
  22.6530233  15.1030741  21.1520960  22.6466725  13.7701434  20.8303624
  22.8735711  14.3641447  21.2892747  33.5343439  24.8271400  12.7099482
  33.2289256  25.5599457  13.0712797  32.8149655  24.4209330  12.4292268
  33.3830782  24.8753133  12.7212619  24.5426909  26.3094896   9.0407710
  24.6165917  26.1470067   9.8949560  25.3596415  26.4985085   8.7968192
  24.6743267  26.3131638   9.1305736  39.2345231  21.4664401  12.0367826
  39.1669732  21.4860360  11.1670413  39.2200894  22.3094728  12.2623497
  39.2223988  21.5938136  11.9420303  18.3032665  26.6552758   6.0702154
  17.4770783  26.9014496   5.9436432  18.3644657  26.5764839   6.9364212
  18.1906832  26.6797707   6.1791098  29.6441578  12.8699559  15.3608916
  30.3895170  12.6809369  14.9472341  29.2278882  13.3957797  14.8022772
  29.6926552  12.9201704  15.2173489  23.0831494  29.2729639   3.7721183
  23.3729793  28.8818620   3.0480410  23.8134975  29.4546344   4.2126459
  23.2338379  29.2423452   3.7303990  37.0203849  20.2408787  10.3114420
  37.5711770  19.6076856  10.5511513  37.0047964  20.7724180  11.0029925
  37.0989045  20.2257735  10.4493279  21.0237410  31.2497021   6.8381333
  20.8037705  30.9594376   7.6308000  20.8031932  30.5911976   6.3099246
  20.9585004  31.1096729   6.8770242  19.9354357  23.3370338   9.1037035
  19.6467606  22.7107809   9.6382762  20.8037705  23.2790625   9.1701715
  20.0214609  23.2357882   9.1927989  30.7232255  18.4805121   9.4219017
  30.3797021  17.7595456   9.7726266  30.8225297  18.2718972   8.5797375
  30.6874298  18.3429324   9.3490697  23.1905366  32.6226411   5.6212026
  23.8429424  32.0902853   5.8503052  22.4930974  32.2695063   6.0079900
  23.1836084  32.4915934   5.7124193  31.1845284  24.9430825   4.9643005
  31.7503317  25.6024035   4.8801548  30.5373187  25.2880523   5.4359407
  31.1724040  25.0912766   5.0215761  22.5993298  16.9328429  20.1536612
  21.7893073  17.2386209  20.0426454  23.0767984  17.6534011  20.2689196
  22.5496776  17.0843030  20.1543683  21.4584857  26.1474150  10.4019515
  20.9365611  26.2874442  11.0871380  21.8458877  25.3884814  10.5921633
  21.4388558  26.0559674  10.5320592  27.6551862  27.8869609   4.3880084
  27.4138538  27.1537470   3.9807149  27.8353195  28.4356466   3.7346417
  27.6459486  27.8592000   4.2310307  29.2423220  16.3996706  11.2978560
  28.4034321  16.4257985  11.0616823  29.3127588  17.0467441  11.8783906
  29.1291614  16.4992832  11.3487676  18.9337329  22.4690979  15.0236015
  19.4458426  22.7475233  14.3744774  18.6473672  23.2080273  15.3898828
  18.9672193  22.6193333  14.9825893  33.1180744  21.6064692   8.5839801
  33.0314719  21.7620119   9.4374580  32.6631224  22.2502768   8.2099206
  33.0384001  21.7240448   8.6546908  22.4521055  14.5617368  15.0837056
  22.2604252  14.5772502  15.9336480  23.3019651  14.7581042  15.0603711
  22.5496777  14.5931719  15.2060351  16.8367968  17.0908349  13.0620873
  16.6953460  16.2392290  13.1865381  17.1208531  17.1337010  12.2383079
  16.8575814  16.9708099  12.9588497  26.9906560  18.9275440   7.2065361
  26.7441275  18.8471191   8.0402150  27.3191683  18.1428907   7.0127888
  27.0027804  18.8001705   7.3012884  30.8854609  25.6358799  10.9952142
  30.7468968  26.3339845  11.5000884  30.1054607  25.4807455  10.6388324
  30.7497836  25.7158966  11.0178416  29.2232694  21.9355174  17.2474524
  29.2180733  21.0634991  17.2516950  29.9293688  22.1343343  16.7743979
  29.3277698  21.8359048  17.1781559  22.9503588  21.6632158  16.6188344
  23.0946963  22.2433366  15.9831454  23.2979236  22.0408455  17.3238199
  23.0231049  21.8052862  16.6287339  25.1223505  20.8622327  14.4013476
  24.3746819  21.0553341  13.9961754  25.2765030  20.0367546  14.1637597
  25.0345932  20.7687438  14.3058881  22.0231342  29.8534930  13.4849371
  22.1720906  29.2937846  12.8322775  22.8031345  29.9326932  13.8681890
  22.1605436  29.7820495  13.4446320  32.3807982  24.9937053   1.7568641
  32.0014791  24.2074191   1.7497931  31.7174227  25.5423910   1.6140286
  32.2266457  24.9581877   1.7349438  24.5484643  30.0249573  14.7633862
  24.4728314  29.3558383  15.3184650  24.4774502  30.7267361  15.2774528
  24.5265250  30.0294480  14.9210710  25.3625282  14.7572877  15.2908879
  25.8197896  15.4896852  15.4181671  25.4381611  14.3339343  16.0496135
  25.4416252  14.8030115  15.4209956  17.6058273  15.0038697  16.3798323
  17.0700463  14.3919055  16.6959090  17.6676038  15.5786833  17.0331990
  17.5353906  14.9985625  16.5233750  25.2054890  28.5450572   5.5957468
  25.9704781  28.2760215   5.2740132  25.1032980  28.0600582   6.3127530
  25.3036386  28.4340136   5.6537295  23.2407660  16.7474981  12.1350703
  22.4503735  16.5666441  12.4568039  23.6368283  15.9701934  12.1180998
  23.1824536  16.6062442  12.1803252  28.6251346  24.3817411   9.8610149
  27.9496348  24.1502644  10.3623536  28.6343722  23.7738594   9.2352254
  28.5269851  24.2576337   9.8426301  25.7545490  19.2235240  16.6174202
  25.6904631  20.0845197  16.4894339  25.8942678  18.9067234  15.8169753
  25.7660960  19.3035407  16.4802415  30.6268081  27.2382544   2.0920327
  30.7087918  28.0449530   1.7681778  31.1117823  27.2578503   2.8161101
  30.7105239  27.3603206   2.1507226  24.4364584  21.9167380  10.7590405
  24.0126833  22.1171879  10.0229423  24.2609439  21.0696228  10.8714705
  24.3475465  21.8216161  10.6664095  23.9376277  33.4317893  13.2211862
  24.4272208  32.7328682  13.0387527  23.3660510  33.1341763  13.8087920
  23.9260807  33.2844116  13.2812903  27.4115443  16.6813619  15.1134041
  27.6257413  16.0424533  14.5597395  26.7949342  17.1259443  14.6841903
  27.3520772  16.6523763  14.9684472  28.8220111  29.6032367   6.5588262
  28.4299903  29.2999083   5.8411128  28.9773183  30.4401457   6.3693216
  28.7873701  29.6816204   6.4244759  29.5754531  18.2902684  16.0517348
  28.7631213  17.9828575  16.1330521  30.0344466  17.8101684  16.6160061
  29.5234916  18.1739177  16.1471943  28.9859786  26.1682356   6.4994293
  28.6274440  26.3396999   7.2758325  28.4998496  26.6295562   5.9422291
  28.8618483  26.2621327   6.5319562  26.6708038  19.6962756  20.8346051
  27.1407670  20.3204872  21.2213925  26.7169919  19.0279731  21.3939265
  26.7475914  19.6897436  20.9746122  25.8971546  12.3412743  13.3887707
  25.5103299  12.3661775  14.1701237  25.4104483  11.7754422  12.9362224
  25.7684054  12.2608494  13.4375611  31.8721525  18.9075398  12.0127409
  31.4449133  18.8201747  11.2575509  31.2347578  19.0153174  12.5982253
  31.7151132  18.9108058  11.9872851  25.5628687   9.2279729  15.6797967
  26.1921805   9.7640029  15.4019037  25.7314550   9.1357088  16.5311533
  25.6806482   9.2941091  15.7646495  25.3642602  14.0150924  17.9524379
  26.1916032  13.7436072  18.0082993  25.3850448  14.8111765  18.3088197
  25.4895452  14.0930678  18.0139561  30.2018782  27.7506061  14.0866850
  30.9911160  27.3995125  14.2068932  30.3762379  28.5642449  13.8243484
  30.3439063  27.8191918  14.0654718  19.9412092  21.1614786  11.1394639
  19.1000099  21.0618660  11.3473533  20.1502100  21.9310267  11.4908960
  19.8476785  21.2606830  11.2221954  23.7528757  19.0896186  10.3892237
  23.4491894  18.5352174  10.9902644  23.0508178  19.2688395   9.9020271
  23.6044967  19.0340968  10.4061942  21.8147108  26.3045906  15.0964335
  21.7067463  26.3147968  15.9626393  22.0242889  27.1300687  14.9069288
  21.8297219  26.4286981  15.1968426  32.3086293  12.3147382   8.1286034
  31.6960607  12.8017784   8.5139766  32.4050468  11.6390872   8.6723685
  32.2324191  12.2865690   8.2664892  19.8320900  23.5558549  12.5586272
  19.2408833  24.1968047  12.5289287  20.5941923  23.9796166  12.5317572
  19.8569160  23.7134387  12.5501419  20.2281523  14.7160546  13.2254290
  20.6883004  14.7899476  13.9629413  20.2737629  15.5141800  12.8754111
  20.3032078  14.8454693  13.2827046  21.8764872  15.3827241  17.7926317
  21.4850438  14.7360588  18.2282095  22.0450735  15.9738677  18.4120572
  21.8435783  15.3741509  17.9489023  35.9511321  23.3864318  13.5563550
  36.0094445  23.8350967  14.3023527  35.3177789  23.7963131  13.1193630
  35.8662617  23.5138053  13.6016099  29.5910416  29.0067860   9.9918297
  29.3930105  29.4958675   9.2974508  28.9698127  29.2109102  10.5702430
  29.4697981  29.1084398   9.9741520  26.6396270  16.3478230  10.2322460
  26.1656225  15.8219992  10.7427771  27.0114406  15.8007703   9.6637322
  26.6246159  16.1894227  10.2237607  17.0169300  18.3449737  15.6006006
  17.8794913  18.2445446  15.5143336  16.6861083  17.7644446  15.0391578
  17.0954497  18.2441364  15.5051412  32.9033001  21.4080606  11.6429241
  32.6631224  20.5687021  11.6471667  33.3825008  21.4880773  12.3670014
  32.9385185  21.2962006  11.7504043  34.9038188  18.1882063   9.5958500
  34.6647958  18.1477897   8.7579284  35.0672089  19.0353215   9.7224221
  34.8928491  18.3074148   9.4911982  31.5084218  22.5732012  15.5263545
  32.2318417  22.1204539  15.3474565  31.2434180  22.8536678  14.7435873
  31.5765491  22.5482981  15.3842260  20.3771086  17.1692186  12.2616424
  19.7524157  17.1810578  11.6542377  20.0416681  17.6452361  12.9107664
  20.2356578  17.2410703  12.2672993  17.0896762  25.2292646  13.7020188
  16.5596686  24.5385085  13.7515163  17.3621855  25.2202831  12.8732897
  17.0521484  25.1259778  13.5867604  27.2903008  22.6715891  13.6758560
  26.6760001  22.1273941  13.9707195  27.8070292  22.1580127  13.1964376
  27.2758670  22.5152300  13.6482788  26.5299305  23.7420161  11.4102859
  26.1026913  23.1169879  10.9768294  26.5224249  23.4595083  12.2361866
  26.4658446  23.6072941  11.4682686  19.6461832  18.7785334  14.4791293
  19.8055319  18.0228658  14.8843015  19.4654725  19.3276273  15.1332030
  19.6427191  18.7479148  14.6353999  27.5882135  10.9446569  15.0342082
  27.0922696  11.1410244  14.3433649  28.3451197  11.3439238  14.8630884
  27.6268959  11.0324303  14.9062219  24.8585014  14.6188915  11.6245393
  24.8827502  14.0849028  10.9358173  25.1096488  14.1106224  12.2870983
  24.8994933  14.4649819  11.6210037  23.3215950  22.9120474  19.1071432
  22.4711580  23.0492188  19.2429076  23.4844077  22.1784252  19.5519133
  23.2199813  22.8234575  19.1927031  22.5600700  19.8620243  13.3025036
  21.7292630  20.0294061  13.0960284  22.5052217  19.4856194  14.0873921
  22.4290115  19.8309975  13.3873564  20.3684483  13.3529136  18.9381447
  20.9937187  12.8091269  19.2110879  19.9134963  12.8724054  18.3689237
  20.3932744  13.2018618  18.8943040  33.9419532  21.5358423  14.0294095
  34.5337372  22.1755674  14.0612293  34.3778527  20.8381460  14.3186161
  34.0937963  21.5276774  14.0774927  27.9375104  14.3229115  13.4976652
  28.3630176  13.8701642  12.8860178  27.3232097  13.7689186  13.7741439
  27.9103749  14.1743092  13.4481677  28.3820702  29.8739053   2.5855932
  27.6650012  29.6999916   2.1203169  29.0327440  29.6391626   2.0531418
  28.3722553  29.8134846   2.4385150  30.9668673  18.7503642   6.3297237
  30.2959863  19.2933344   6.2010303  31.6608424  19.2198497   6.0878932
  30.9697541  18.9001913   6.2752765  25.0155407  30.8900354  11.5608995
  24.7921062  30.1319183  11.9293022  24.5265250  30.9198375  10.8389435
  24.9098856  30.7822578  11.5085736  31.1296801  15.2059526   9.2387610
  31.4824411  14.7789248   9.9133409  30.2711602  15.1210369   9.3688687
  31.0546245  15.1304266   9.3582621  29.1280067  18.4694894  13.1872453
  29.1077994  18.2878189  14.0407231  29.1759267  19.3406913  13.1632036
  29.1314708  18.5711432  13.3095747  23.6633864  31.1100812   9.0146080
  23.2494263  30.4474942   8.6249922  24.3481238  31.2578671   8.4941774
  23.7032236  31.0341470   8.8802577  27.0299158  30.2690897   9.7669697
  26.6315441  30.3793168   8.9990517  26.4150378  30.4772964  10.3496256
  26.8798047  30.3164465   9.7400996  32.5620861  10.3277937  10.1671923
  32.0551726   9.6207077  10.0993100  33.3588295   9.9971126  10.2972999
  32.6048100  10.1751089  10.1770918  22.7604105  18.6879023  15.6670687
  22.2483008  18.0800206  16.0255718  22.5883601  19.4035615  16.1344663
  22.6593742  18.7042322  15.7886910  17.6069820  17.1316598  18.3173049
  17.4372410  17.7917973  17.7721255  17.1635770  17.3423159  19.0385538
  17.5169154  17.2602580  18.3434678  34.7641001  24.8442864   3.1512787
  35.1474607  25.5934220   3.3810884  33.9685114  25.0908684   2.8924776
  34.7034783  24.9912558   3.1470361  26.6373176  16.6103267  18.1072942
  27.1944606  16.3817077  17.4751408  26.3134241  17.3708933  17.8308155
  26.6719586  16.6887104  17.9729439  14.5071884  20.0363464  13.5761538
  13.9598604  19.3664109  13.6942407  15.2964263  19.6693311  13.6405006
  14.5424068  19.8828450  13.6030239  24.3556293  19.6970921  19.0724950
  25.1067620  20.0122597  19.3864504  24.5478869  19.4950092  18.2458871
  24.4947707  19.7138302  18.9968345  31.2041583  15.8244487   6.3148745
  31.2035809  15.6693144   7.1733021  30.9997763  16.6707474   6.2590131
  31.1741361  15.9265108   6.4336684  28.9282435  20.5041989   9.9684952
  29.4236100  19.7864984   9.9288972  28.1182211  20.2012786   9.8539439
  28.8826328  20.3539635   9.9458678  30.9934254  23.2545676  12.6562081
  31.4189325  22.7320098  12.1032506  30.6291174  23.8526514  12.1350704
  31.0020856  23.2655903  12.4971090  20.6288334  31.5509894  11.4159426
  20.9434893  32.3646282  11.4237208  21.0381747  31.1660112  12.0841585
  20.7356432  31.6138596  11.5163518  27.5812853  26.9679941   8.9863238
  28.0524032  27.6820203   9.1553223  27.9173032  26.3678691   9.5223108
  27.7007968  26.9851405   9.0895614  24.4982348  11.7407411  15.9421333
  24.6310254  10.9438405  16.2702308  24.8827501  12.2673814  16.5219608
  24.5738677  11.7007328  16.0764836  31.0280664  14.8283229  13.1342123
  30.4443653  15.3292436  12.7219690  31.3484958  14.3212785  12.5006446
  30.9893839  14.8275064  12.9800630  22.1570795  11.7366586  14.1899227
  22.7015208  11.3957713  14.7803568  22.2107731  12.5952048  14.3320511
  22.2459914  11.8121846  14.2981100  17.9701354  25.4983002  11.0638034
  18.5746211  25.4578836  10.4351855  17.7628666  26.3454154  11.0942090
  18.0290251  25.6171005  10.9754151  27.7845126  27.7648947  12.2800272
  28.6043500  27.6211913  12.5416567  27.5039204  28.3895146  12.8216710
  27.8641869  27.8359299  12.3988211  13.2052636  24.4817620  10.9336958
  13.1076914  23.6713891  11.2427014  13.9881506  24.4609413  10.5483226
  13.3068773  24.3584710  10.9223821  44.2558776  35.4213799   5.2443148
  44.2252781  36.2758436   5.4161418  44.8540125  35.1209092   5.8029292
  44.3395934  35.5030296   5.3517951  37.4558461  34.5089450   9.9996079
  36.5996357  34.6697948  10.0505195  37.5026115  33.6381514  10.0201140
  37.3357573  34.4040252  10.0102145  31.8399601  44.0452168   5.7633310
  31.0882500  43.6667706   5.5349355  32.2885613  44.0770602   5.0152121
  31.7949268  43.9937775   5.6190812  40.7652178  40.7775976  19.6056535
  41.4718945  40.2828006  19.7343469  40.9540113  41.2185057  18.8759193
  40.8980083  40.7694326  19.5165580  37.2924561  44.4677537   1.1918857
  36.9575929  45.1454459   0.7563079  37.8051431  44.0782849   0.6035729
  37.3190142  44.5102116   1.0405649  36.8328852  46.4191806   7.1329969
  37.2168231  46.9878705   6.5934744  36.7687993  45.6941316   6.6535785
  36.8802279  46.3967270   6.9823831  40.3010282  36.5681494  12.6427730
  40.8466242  37.2466581  12.7021700  40.2427159  36.4268955  11.7829312
  40.3726197  36.6473496  12.5239791  33.4184357  44.0570560   8.0296083
  33.5194720  43.2470914   8.3393210  32.8226102  43.9627507   7.3995761
  33.3456896  43.9235588   7.9822321  42.0775351  37.9966101   3.5161458
  41.9614877  38.7473787   3.9453596  42.8731238  37.7390054   3.7657545
  42.1779940  38.0700948   3.6165550  33.2585097  48.9748149   9.4310939
  33.9022552  49.4161313   9.8207097  33.5841352  48.1701575   9.3441198
  33.4016925  48.9213344   9.4756416  26.6149401  40.0790847   7.6548416
  26.3799586  39.2458499   7.5480685  26.7535042  40.3595512   6.8409617
  26.6005064  39.9974350   7.5190771  28.9139489  32.2476577  10.5532724
  28.2944520  31.6569225  10.3842739  28.8123352  32.8388012   9.9197047
  28.8077164  32.2480660  10.4337714  33.9605676  41.9860124   4.8030800
  34.2821517  42.5265331   4.1992109  34.6077773  41.4156896   4.9353090
  34.1031732  41.9819299   4.7337836  36.0107384  33.9876119   4.8865187
  36.7087549  34.1664247   5.3786650  36.3259717  33.4646458   4.2635577
  36.1602722  33.9369891   4.8667197  28.6408622  35.7928859  12.7976293
  28.5167319  36.3791304  13.4326112  29.2926906  35.2989055  13.0988568
  28.7182271  35.8067663  12.9362222  36.1995320  40.3746564   4.8744979
  36.6388955  39.7663665   5.3199751  36.0499983  39.9953937   4.1030444
  36.2416786  40.2285035   4.8264146  33.6666963  38.9690576  12.0763804
  34.3115965  38.4763019  11.7574753  33.9068740  39.1115363  12.9029882
  33.7977548  38.9168018  12.1513337  36.2053054  41.8145482  11.7270697
  36.4876297  41.0196888  11.5057453  36.9339215  42.2926069  11.7475758
  36.3542618  41.7680079  11.6973712  34.1834248  29.3568516   8.9686462
  33.8537578  29.8079659   8.2990161  33.5079250  29.2784679   9.5159468
  34.0344684  29.4119651   8.9509685  39.8004656  38.7273745   1.8275748
  39.7155951  39.5834712   1.9725317  40.2889040  38.4518069   2.4957907
  39.8593554  38.8131067   1.9477829  41.3910656  25.3454039   7.2136072
  41.0764097  26.0357517   7.6456495  40.8737597  25.2898821   6.5121573
  41.2675126  25.4388927   7.1733022  40.7323090  35.3458540   3.3273483
  40.2034561  35.5618173   3.9870789  41.2548110  36.0394678   3.2474452
  40.7311543  35.4801676   3.4129082  46.1871143  40.9204844   8.7006527
  45.3568846  41.1315488   8.8639944  46.1380395  40.0941899   8.4248811
  46.0577878  40.8294450   8.6843893  32.6222697  39.2421756   2.1280951
  32.0379913  39.7471788   2.5346815  32.2192793  39.0164143   1.3877543
  32.4762001  39.2830005   2.0785976  28.1766726  44.9576517   8.9304623
  27.6934304  45.6827007   8.9064206  28.9890044  45.2552647   9.0414780
  28.2257474  45.1078871   8.9431902  34.2480880  43.7508698  11.5354437
  33.7307822  43.3916113  10.9315745  34.9455271  43.2270873  11.5460503
  34.2746461  43.6206386  11.4484696  35.4714932  43.4834672  16.4788272
  34.9085767  43.0707282  17.0027933  36.2335955  43.4087578  16.8981416
  35.5009380  43.4112073  16.6181273  37.0799912  35.4887408   0.6049872
  37.3195916  35.6965392  -0.2074785  37.4015753  34.6844917   0.7138816
  37.1637070  35.4001510   0.5010425  32.3890202  27.4180804   4.4509410
  33.1436170  27.7859121   4.2126460  32.2117737  27.7920359   5.2188589
  32.4744680  27.5278992   4.5294298  31.0310923  45.4732693   9.0824902
  31.7331503  44.9584682   9.1397659  30.9508406  45.8006845   9.8871778
  31.1234684  45.4446920   9.2097695  45.6825101  33.5675245  12.4956949
  44.8453522  33.6377432  12.7304543  45.6513332  33.5699739  11.6231251
  45.5543383  33.5785472  12.4016497  30.7447267  29.8251123   1.1487523
  30.5622840  30.0423004   0.3228515  31.6072880  29.9390136   1.2046137
  30.8451856  29.8741021   1.0342010  30.3561699  41.6639045   8.5910510
  31.1950598  41.8961978   8.6384272  30.3873468  40.7943357   8.5217546
  30.4843416  41.5695992   8.5875155  30.9814402  42.0839921  12.8923816
  31.5212627  41.9411052  13.5627188  30.2984348  42.4836671  13.2607842
  30.9606556  42.1219591  13.0458238  36.4246986  26.8277534   4.1836546
  37.1533146  26.6493489   3.7374703  36.5141879  27.6695614   4.3943724
  36.5453648  26.9261412   4.1490064  40.4055287  37.7630921   8.0868840
  41.1612802  38.1962436   8.1257749  40.5117611  37.1135691   8.6603476
  40.5325457  37.7308405   8.1766866  43.4435458  41.5904198   8.8371243
  43.0070690  41.5940941   9.5930215  43.1098373  42.2709697   8.4050821
  43.3298078  41.6916654   8.8852076  26.3851547  38.3040211  13.0458237
  26.1189962  37.4879328  13.2049228  26.3990111  38.3493367  12.1753753
  26.3476269  38.1897116  12.9411719  43.3632941  28.6318026  11.0800671
  44.0058849  28.7016131  11.6662587  43.6155961  27.9647249  10.5780213
  43.4955073  28.5444375  11.0927950  30.2909294  33.1025296  -0.3390004
  29.5767471  32.8163475   0.0732428  30.7753262  33.4421922   0.3016383
  30.2568657  33.1106945  -0.1834369  38.1734925  45.5422633  13.8080849
  37.3750170  45.3022133  14.0654718  38.6220936  45.5937026  14.5547897
  38.1209536  45.5145024  13.9565773  46.5779804  38.3085118   7.7290881
  47.2396238  37.7475787   7.6286789  45.9371216  37.8137149   8.0543572
  46.5808671  38.1521527   7.7623221  37.4656612  41.6055250   0.0371804
  37.8807760  41.2740274  -0.6543700  36.6348541  41.3724152  -0.0908060
  37.4044620  41.5226506  -0.0837349  26.7944960  39.0898991  10.3269982
  26.6120534  39.0645877   9.4742274  27.5294629  39.5597929  10.3658891
  26.8759024  39.1560353  10.2067900  42.8644635  39.3250501   7.4702869
  43.1000224  39.4695700   6.6429720  43.0134198  40.0892909   7.8634383
  42.9210438  39.4589555   7.4066473  29.8590712  35.8083994  16.8352090
  30.5830684  35.7937024  17.3216985  29.9606849  36.5179349  16.3374059
  29.9808921  35.9108697  16.8330877  44.6935091  38.1652167   5.3072473
  45.0243308  38.6979807   4.7012568  45.2668179  38.2191054   5.9634424
  44.8268771  38.2521735   5.3150255  39.9066981  36.0117069   5.9896053
  40.0013835  36.7506363   6.4435679  39.2825824  35.5834545   6.4230618
  39.8276011  36.0578390   6.1204201  38.1619454  39.1903282  16.6386334
  38.7358316  38.5530526  16.7934898  38.0834258  39.1907364  15.7695992
  38.2352689  39.0968393  16.5332745  26.7615871  35.9692491  10.4769048
  27.3389373  35.8328942  11.1161294  26.0629933  35.5128276  10.7314633
  26.7436892  35.8814758  10.6091338  40.1590002  37.8565809  -0.7766995
  40.0770164  37.9267996   0.0887992  40.7969722  38.4195553  -0.9683254
  40.2409839  37.9504780  -0.6777045  33.5183173  37.6226547   8.6907532
  33.2602417  36.7898282   8.6638831  33.5731656  37.8484160   7.8500032
  33.4882951  37.5324318   8.5627668  38.5984223  29.7254998   8.7911624
  37.8940550  29.2364183   8.9495543  38.6469197  29.7377472   7.9200069
  38.5014275  29.6544646   8.6850964  32.4917885  35.1764310   9.1772426
  31.9167476  35.3356478   9.8136387  32.1153561  34.5399719   8.7140877
  32.3520697  35.1062122   9.2026985  36.1591174  33.6487659  14.0364805
  35.7705607  33.2241877  13.3816996  35.4945872  33.8969808  14.5441831
  36.0038102  33.6226380  14.0152673  45.8014443  33.4062664   6.8112635
  45.5451008  32.5942605   6.6210518  46.6443757  33.4140231   6.5842822
  45.8880468  33.2874661   6.7497452  22.2374704  34.8204384   7.1916867
  22.3234956  34.4436253   7.9730397  22.8650501  34.4464830   6.7136825
  22.3431255  34.7089866   7.2362344  39.9817535  27.3462288  11.5488789
  40.3628047  26.6640459  11.9356663  39.1780820  27.0571890  11.3664453
  39.9193997  27.2029336  11.5792845  37.2630112  37.8786263   2.2341612
  38.0770751  38.1701156   2.1224383  37.1989253  37.2246126   1.6599905
  37.3732851  37.8251458   2.1330449  43.4839602  40.5612260  16.6471187
  43.2478240  39.7300324  16.5283248  44.1282831  40.5097867  17.2326032
  43.5434273  40.4309948  16.7157081  33.1338020  41.3507781   7.3613924
  33.7711967  41.1119528   7.9065717  33.5593092  41.5544940   6.6267084
  33.2914187  41.3458791   7.3331081  27.8250663  43.5896117  11.2448228
  27.8654808  43.8610968  10.4168007  28.3845187  44.1138025  11.6606015
  27.9134009  43.7071872  11.1840116  33.7740835  36.5710071   1.6988813
  34.1585988  36.3517777   2.4505358  33.5252456  37.3973016   1.8289890
  33.7942908  36.6608217   1.8289890  44.5076023  40.3456708  12.7099482
  44.2021840  41.0784765  13.0712797  43.7882238  39.9394638  12.4292268
  44.3563365  40.3938441  12.7212619  35.5159492  41.8280204   9.0407710
  35.5898501  41.6655375   9.8949560  36.3328999  42.0170393   8.7968192
  35.6475851  41.8316946   9.1305736  50.2077815  36.9849709  12.0367826
  50.1402315  37.0045668  11.1670413  50.1933477  37.8280036  12.2623497
  50.1956571  37.1123444  11.9420303  29.2765249  42.1738066   6.0702154
  28.4503367  42.4199804   5.9436432  29.3377240  42.0950147   6.9364212
  29.1639416  42.1983015   6.1791098  31.4941273  28.2407007   7.0297594
  30.6263698  28.3129607   7.0955203  31.7816477  29.0429086   7.2185569
  31.4081021  28.3701154   7.0672360  40.6174161  28.3884867  15.3608916
  41.3627753  28.1994677  14.9472341  40.2011466  28.9143105  14.8022772
  40.6659136  28.4387012  15.2173489  34.0564078  44.7914947   3.7721183
  34.3462376  44.4003928   3.0480410  34.7867559  44.9731651   4.2126459
  34.2070962  44.7608760   3.7303990  47.9936432  35.7594095  10.3114420
  48.5444354  35.1262164  10.5511513  47.9780548  36.2909488  11.0029925
  48.0721629  35.7443043  10.4493279  34.6458823  39.5932692  14.8574314
  34.1470517  40.3048460  14.9359202  35.4559047  39.9133359  14.8192476
  34.6914930  39.7459541  14.8630882  31.9969994  46.7682329   6.8381333
  31.7770289  46.4779684   7.6308000  31.7764516  46.1097284   6.3099246
  31.9317588  46.6282037   6.8770242  30.9086941  38.8555645   9.1037035
  30.6200189  38.2293117   9.6382762  31.7770289  38.7975933   9.1701715
  30.9947193  38.7543190   9.1927989  41.6964839  33.9990429   9.4219017
  41.3529604  33.2780764   9.7726266  41.7957881  33.7904280   8.5797375
  41.6606881  33.8614632   9.3490697  34.1637949  48.1411719   5.6212026
  34.8162007  47.6088161   5.8503052  33.4663558  47.7880371   6.0079900
  34.1568667  48.0101242   5.7124193  31.1119214  40.4950897   5.0279400
  31.8665182  40.8763936   5.2414862  30.5189827  40.9462040   5.4826096
  31.1355928  40.6179724   5.1262278  42.1577868  40.4616133   4.9643005
  42.7235900  41.1209343   4.8801548  41.5105771  40.8065831   5.4359407
  42.1456624  40.6098074   5.0215761  32.4317441  41.6659458  10.4019515
  31.9098194  41.8059750  11.0871380  32.8191461  40.9070122  10.5921633
  32.4121142  41.5744982  10.5320592  29.4208625  31.7165267   4.4714470
  29.1333420  31.3466537   3.7346417  30.1079093  32.1860122   4.2098175
  29.4797522  31.7312236   4.3229546  38.6284446  43.4054917   4.3880084
  38.3871122  42.6722778   3.9807149  38.8085779  43.9541774   3.7346417
  38.6192070  43.3777308   4.2310307  33.8583766  38.6963477   5.8001006
  33.6626549  39.3038211   5.2061309  34.0818112  38.0031421   5.3192680
  33.8618407  38.6841002   5.6417087  32.2562296  35.5818215   5.9181875
  32.9784948  35.7459373   5.4585681  31.7770289  36.3027880   5.8121214
  32.2926027  35.7116444   5.8347489  40.2155804  31.9182014  11.2978560
  39.3766905  31.9443293  11.0616823  40.2860171  32.5652749  11.8783906
  40.1024197  32.0178139  11.3487676  29.9069913  37.9876287  15.0236015
  30.4191010  38.2660541  14.3744774  29.6206256  38.7265581  15.3898828
  29.9404776  38.1378641  14.9825893  38.6625082  28.8167391   6.0306176
  39.3651435  28.6175139   5.5526134  38.3969271  28.0443333   6.3375019
  38.7271715  28.6730357   6.0051617  44.0913328  37.1250000   8.5839801
  44.0047302  37.2805426   9.4374580  43.6363808  37.7688076   8.2099206
  44.0116584  37.2425755   8.6546908  26.9936819  32.4946479   5.3199751
  27.0952956  33.2972641   5.6480726  27.7892706  32.2933815   5.0222832
  27.1264725  32.5832378   5.3235106  27.8100551  32.6093657  13.0620873
  27.6686043  31.7577598  13.1865381  28.0941115  32.6522318  12.2383079
  27.8308398  32.4893407  12.9588497  37.9639144  34.4460748   7.2065361
  37.7173858  34.3656498   8.0402150  38.2924267  33.6614215   7.0127888
  37.9760387  34.3187013   7.3012884  41.8587193  41.1544107  10.9952142
  41.7201552  41.8525153  11.5000884  41.0787191  40.9992763  10.6388324
  41.7230419  41.2344273  11.0178416  40.1965278  37.4540482  17.2474524
  40.1913316  36.5820299  17.2516950  40.9026272  37.6528651  16.7743979
  40.3010282  37.3544356  17.1781559  33.9236171  37.1817466  16.6188344
  34.0679547  37.7618674  15.9831454  34.2711820  37.5593763  17.3238199
  33.9963632  37.3238170  16.6287339  36.0956088  36.3807634  14.4013476
  35.3479402  36.5738649  13.9961754  36.2497614  35.5552854  14.1637597
  36.0078516  36.2872746  14.3058881  32.9963926  45.3720238  13.4849371
  33.1453490  44.8123154  12.8322775  33.7763928  45.4512240  13.8681890
  33.1338020  45.3005803  13.4446320  43.3540565  40.5122361   1.7568641
  42.9747374  39.7259499   1.7497931  42.6906811  41.0609218   1.6140286
  43.1999040  40.4767185   1.7349438  35.5217227  45.5434881  14.7633862
  35.4460898  44.8743691  15.3184650  35.4507086  46.2452669  15.2774528
  35.4997834  45.5479788  14.9210710  36.3357865  30.2758185  15.2908879
  36.7930480  31.0082160  15.4181671  36.4114194  29.8524650  16.0496135
  36.4148835  30.3215423  15.4209956  40.8085191  23.4548060   9.1602722
  40.9268760  23.9124524   8.4270025  40.6347367  22.6493322   8.8738940
  40.8004362  23.4041833   9.0103656  36.1787474  44.0635880   5.5957468
  36.9437365  43.7945523   5.2740132  36.0765564  43.5785890   6.3127530
  36.2768969  43.9525444   5.6537295  34.2140243  32.2660289  12.1350703
  33.4236318  32.0851749  12.4568039  34.6100866  31.4887242  12.1180998
  34.1557120  32.1247750  12.1803252  38.7006134  41.0948063  -2.4242583
  39.4679119  41.1548188  -2.8336731  38.2537443  40.5228505  -2.9086265
  38.7479561  41.0184639  -2.5564873  39.5983930  39.9002719   9.8610149
  38.9228932  39.6687952  10.3623536  39.6076306  39.2923902   9.2352254
  39.5002434  39.7761644   9.8426301  36.7278074  34.7420548  16.6174202
  36.6637215  35.6030505  16.4894339  36.8675261  34.4252541  15.8169753
  36.7393544  34.8220715  16.4802415  41.6000664  42.7567852   2.0920327
  41.6820502  43.5634838   1.7681778  42.0850406  42.7763811   2.8161101
  41.6837822  42.8788514   2.1507226  35.4097168  37.4352688  10.7590405
  34.9859417  37.6357187  10.0229423  35.2342023  36.5881536  10.8714705
  35.3208048  37.3401469  10.6664095  34.9108861  48.9503201  13.2211862
  35.4004791  48.2513990  13.0387527  34.3393093  48.6527071  13.8087920
  34.8993391  48.8029424  13.2812903  30.6979613  37.9304739   6.1918378
  30.8544232  37.8651542   7.0474370  31.0380206  38.7053292   5.9797057
  30.7712847  38.0353937   6.2872972  37.2358757  37.3062623   5.0611741
  37.7774303  36.8033004   5.5250361  37.5505316  37.2527817   4.2501226
  37.3623154  37.2242044   5.0095553  35.4045207  42.6979974   2.3451769
  35.4738027  41.8394513   2.4844769  36.1833662  42.9151855   2.0170793
  35.5298057  42.6032838   2.3168926  38.3848027  32.1998927  15.1134041
  38.5989996  31.5609841  14.5597395  37.7681926  32.6444751  14.6841903
  38.3253356  32.1709071  14.9684472  39.7952694  45.1217675   6.5588262
  39.4032486  44.8184391   5.8411128  39.9505767  45.9586765   6.3693216
  39.7606284  45.2001512   6.4244759  27.2713874  35.1139689   6.5079145
  27.6512839  35.5324234   5.8439412  26.6969239  35.6953145   6.8147988
  27.2425199  35.2617548   6.4555886  40.5487115  33.8087992  16.0517348
  39.7363796  33.5013883  16.1330521  41.0077049  33.3286992  16.6160061
  40.4967499  33.6924485  16.1471943  39.9592369  41.6867664   6.4994293
  39.6007024  41.8582307   7.2758325  39.4731080  42.1480870   5.9422291
  39.8351066  41.7806635   6.5319562  37.7762755  25.3098863  10.1021384
  36.9056313  25.2837584  10.0554694  38.0303096  25.1376055   9.2847230
  37.6856315  25.2809006   9.9741521  34.7480735  37.3666830  -0.9605473
  35.0373259  38.1431712  -0.6861899  34.8352533  36.8555561  -0.2590974
  34.8034991  37.4058748  -0.8162975  37.6440622  35.2148064  20.8346051
  38.1140253  35.8390180  21.2213925  37.6902502  34.5465039  21.3939265
  37.7208498  35.2082744  20.9746122  34.8011896  27.3205091  11.5594854
  34.2850384  26.6285283  11.6846433  34.2405825  27.9875868  11.5057453
  34.6418409  27.3168349  11.5700920  36.8704129  27.8598051  13.3887707
  36.4835882  27.8847083  14.1701237  36.3837066  27.2939730  12.9362224
  36.7416638  27.7793802  13.4375611  41.1197109  42.5771560  17.4461494
  41.7576829  42.0831756  17.1123950  40.4771200  42.5048961  16.8613720
  41.1191335  42.4930569  17.3103849  42.8454109  34.4260706  12.0127409
  42.4181717  34.3387055  11.2575509  42.2080162  34.5338482  12.5982253
  42.6883716  34.4293366  11.9872851  36.5361271  24.7465037  15.6797967
  37.1654389  25.2825337  15.4019037  36.7047134  24.6542396  16.5311533
  36.6539065  24.8126399  15.7646495  41.1751365  43.2691369  14.0866850
  41.9643743  42.9180433  14.2068932  41.3494963  44.0827757  13.8243484
  41.3171647  43.3377226  14.0654718  30.9144676  36.6800094  11.1394639
  30.0732682  36.5803968  11.3473533  31.1234684  37.4495575  11.4908960
  30.8209368  36.7792138  11.2221954  28.3920243  34.3019631   8.9679390
  27.9976940  34.3762643   8.1929500  27.8360359  34.6877578   9.5187752
  28.2523055  34.3701406   8.9347050  40.0285189  27.2800925   8.6483269
  40.2334783  27.2123233   9.4940266  39.7011613  28.0859746   8.5804446
  40.0100437  27.3886866   8.7642924  34.7261340  34.6081493  10.3892237
  34.4224478  34.0537482  10.9902644  34.0240761  34.7873703   9.9020271
  34.5777550  34.5526276  10.4061942  33.7827438  31.9182013   4.9536939
  34.0587172  31.2000926   4.5414506  34.3826107  32.5166933   4.7458045
  33.9120702  31.9002384   4.8617700  32.7879691  41.8231214  15.0964335
  32.6800046  41.8333276  15.9626393  32.9975473  42.6485995  14.9069288
  32.8029803  41.9472289  15.1968426  43.2818877  27.8332689   8.1286034
  42.6693191  28.3203092   8.5139766  43.3783052  27.1576180   8.6723685
  43.2056775  27.8050998   8.2664892  37.2837958  29.5895531   3.2283534
  37.7381705  29.7606091   3.9531378  37.7578004  28.9763641   2.8281309
  37.4206278  29.5246416   3.2757295  30.8053483  39.0743857  12.5586272
  30.2141417  39.7153355  12.5289287  31.5674507  39.4981474  12.5317572
  30.8301744  39.2319695  12.5501419  46.9243905  38.9049626  13.5563550
  46.9827029  39.3536275  14.3023527  46.2910373  39.3148439  13.1193630
  46.8395200  39.0323361  13.6016099  40.5643000  44.5253168   9.9918297
  40.3662688  45.0143983   9.2974508  39.9430711  44.7294410  10.5702430
  40.4430564  44.6269706   9.9741520  34.6250978  36.2938065   4.3328541
  35.3693023  36.6812341   4.5711491  34.7711674  35.4495490   4.4969029
  34.7561563  36.2268538   4.3922511  36.5430553  28.0888324   9.3660402
  35.6966599  28.2611132   9.2401752  36.5401686  27.2837668   9.7026231
  36.4177703  27.9949353   9.3971529  37.6128854  31.8663538  10.2322460
  37.1388808  31.3405300  10.7427771  37.9846990  31.3193011   9.6637322
  37.5978743  31.7079535  10.2237607  27.9901884  33.8635045  15.6006006
  28.8527497  33.7630754  15.5143336  27.6593667  33.2829754  15.0391578
  28.0687080  33.7626672  15.5051412  43.8765584  36.9265914  11.6429241
  43.6363807  36.0872329  11.6471667  44.3557592  37.0066081  12.3670014
  43.9117768  36.8147314  11.7504043  39.5412354  32.7600093   3.2948214
  39.0135372  32.8428837   2.6053923  40.0008062  33.5017964   3.2912859
  39.5314204  32.8820755   3.1922909  45.8770771  33.7067371   9.5958500
  45.6380541  33.6663205   8.7579284  46.0404673  34.5538523   9.7224221
  45.8661075  33.8259456   9.4911982  42.4816802  38.0917320  15.5263545
  43.2051000  37.6389847  15.3474565  42.2166764  38.3721986  14.7435873
  42.5498075  38.0668289  15.3842260  31.3503670  32.6877494  12.2616424
  30.7256740  32.6995886  11.6542377  31.0149265  33.1637669  12.9107664
  31.2089162  32.7596011  12.2672993  31.5345419  31.0302612  -1.6810891
  31.1858223  31.6822338  -1.2179342  31.0541865  31.0159725  -2.4087020
  31.4115663  31.1245666  -1.7199800  28.0629346  40.7477954  13.7020188
  27.5329270  40.0570393  13.7515163  28.3354439  40.7388139  12.8732897
  28.0254068  40.6445086  13.5867604  39.0949436  41.3303656   2.4257871
  39.8183635  41.7961769   2.2822444  38.6550027  41.3977266   1.6755468
  39.1365128  41.4087493   2.2942652  38.2635591  38.1901199  13.6758560
  37.6492584  37.6459249  13.9707195  38.7802876  37.6765435  13.1964376
  38.2491254  38.0337608  13.6482788  37.5031888  39.2605469  11.4102859
  37.0759496  38.6355187  10.9768294  37.4956833  38.9780391  12.2361866
  37.4391029  39.1258249  11.4682686  30.6194415  34.2970642  14.4791293
  30.7787902  33.5413966  14.8843015  30.4387309  34.8461581  15.1332030
  30.6159774  34.2664456  14.6353999  38.5614718  26.4631877  15.0342082
  38.0655280  26.6595552  14.3433649  39.3183780  26.8624546  14.8630884
  38.6001543  26.5509611  14.9062219  35.8317598  30.1374223  11.6245393
  35.8560085  29.6034336  10.9358173  36.0829072  29.6291532  12.2870983
  35.8727517  29.9835127  11.6210037  23.3425188  37.4205718  11.0588537
  23.2368637  37.3752563  10.1940621  22.5925408  37.7659499  11.3402822
  23.2160791  37.4646626  10.9725866  32.1118920  28.8645041  11.0051137
  32.1517292  29.3654248  11.7185844  31.2868585  28.9555435  10.7357060
  31.9958446  28.9526858  11.0701675  34.2948533  38.4305781  19.1071432
  33.4444164  38.5677496  19.2429076  34.4576661  37.6969560  19.5519133
  34.1932397  38.3419883  19.1927031  33.5333284  35.3805551  13.3025036
  32.7025213  35.5479369  13.0960284  33.4784801  35.0041502  14.0873921
  33.4022698  35.3495283  13.3873564  31.9069327  33.6561143   3.8315154
  32.0472288  34.1533607   4.5343795  32.4051860  32.9547437   3.9729367
  32.0010408  33.6263122   3.9566733  31.9369550  34.5228254   1.1607730
  32.5714629  35.1188679   1.0957192  32.0195161  34.2231711   1.9753601
  32.0426101  34.5669162   1.2710817  44.9152116  37.0543731  14.0294095
  45.5069956  37.6940982  14.0612293  45.3511110  36.3566768  14.3186161
  45.0670547  37.0462082  14.0774927  33.5148533  30.4542229   1.1353172
  33.8364374  29.9745312   0.4812435  33.7775476  31.2641875   0.9443984
  33.6014558  30.5032127   1.0108665  36.7445505  41.4761104  14.6551989
  36.2370597  42.0296950  15.0992619  36.4472152  41.5369394  13.8370763
  36.6250390  41.5667415  14.6000445  38.9107688  29.8414423  13.4976652
  39.3362759  29.3886950  12.8860178  38.2964681  29.2874494  13.7741439
  38.8836333  29.6928399  13.4481677  28.4422538  36.7196095   4.4297277
  28.9514767  37.3160602   4.8108582  28.9156810  36.4522068   3.7473696
  28.5865913  36.7681910   4.3851799  39.3553286  45.3924361   2.5855932
  38.6382595  45.2185224   2.1203169  40.0060023  45.1576934   2.0531418
  39.3455136  45.3320154   2.4385150  37.3501910  26.3129523   6.9067229
  36.7070228  26.1627169   7.4752367  37.0101317  26.0671868   6.1416333
  37.2046988  26.2541646   6.8770244  41.9401257  34.2688950   6.3297237
  41.2692447  34.8118652   6.2010303  42.6341007  34.7383805   6.0878932
  41.9430124  34.4187221   6.2752765  35.9887991  46.4085662  11.5608995
  35.7653645  45.6504491  11.9293022  35.4997834  46.4383683  10.8389435
  35.8831440  46.3007886  11.5085736  42.1029384  30.7244833   9.2387610
  42.4556995  30.2974556   9.9133409  41.2444186  30.6395677   9.3688687
  42.0278829  30.6489574   9.3582621  30.8013069  33.3552353   7.2970457
  30.0825059  33.7716486   7.5643320  31.1725432  33.9206592   6.7462095
  30.7505001  33.5001635   7.2553264  40.1012650  33.9880202  13.1872453
  40.0810578  33.8063497  14.0407231  40.1491851  34.8592221  13.1632036
  40.1047291  34.0896740  13.3095747  34.6366448  46.6286120   9.0146080
  34.2226846  45.9660250   8.6249922  35.3213822  46.7763979   8.4941774
  34.6764819  46.5526778   8.8802577  38.0031742  45.7876205   9.7669697
  37.6048025  45.8978476   8.9990517  37.3882961  45.9958272  10.3496256
  37.8530631  45.8349773   9.7400996  36.5759644  32.3950353   2.6343836
  35.9824483  32.7167350   2.0828403  36.6134921  31.5491448   2.4264943
  36.4934033  32.3174681   2.5226608  43.5353445  25.8463245  10.1671923
  43.0284309  25.1392385  10.0993100  44.3320878  25.5156434  10.2972999
  43.5780684  25.6936397  10.1770918  39.4517460  32.3529858   6.0645587
  39.2231153  32.3762559   5.2223945  39.7115537  31.5287325   6.1840597
  39.4563648  32.2345938   5.9570784  28.5802404  32.6501906  18.3173049
  28.4104994  33.3103281  17.7721255  28.1368353  32.8608467  19.0385538
  28.4901737  32.7787888  18.3434678  32.5062223  30.8906404   7.3599782
  32.9819589  31.2523484   6.7249963  32.0050823  31.5462871   7.6399925
  32.5027582  31.0400593   7.3076523  45.7373584  40.3628172   3.1512787
  46.1207190  41.1119528   3.3810884  44.9417698  40.6093992   2.8924776
  45.6767367  40.5097866   3.1470361  37.6105759  32.1288575  18.1072942
  38.1677189  31.9002385  17.4751408  37.2866824  32.8894241  17.8308155
  37.6452169  32.2072412  17.9729439  25.4804468  35.5548772  13.5761538
  24.9331187  34.8849417  13.6942407  26.2696846  35.1878619  13.6405006
  25.5156652  35.4013758  13.6030239  34.5488876  33.0347604   0.7273166
  34.9287841  33.0527233  -0.0575719  33.8081472  33.4801593   0.6064014
  34.4957714  33.1029378   0.5936734  42.1774167  31.3429795   6.3148745
  42.1768393  31.1878451   7.1733021  41.9730347  32.1892782   6.2590131
  42.1473944  31.4450416   6.4336684  24.2391438  34.7669579  10.7307562
  24.0613199  34.3146188  11.4562477  23.9510460  35.5695741  10.9146039
  24.1704391  34.8192137  10.8651064  39.9015019  36.0227297   9.9684952
  40.3968684  35.3050292   9.9288972  39.0914794  35.7198094   9.8539439
  39.8558912  35.8724943   9.9458678  35.3473630  39.8725110   2.1181956
  34.5384953  39.5491783   2.0715266  35.8548539  39.1658332   2.0510205
  35.3023297  39.7206426   2.1012251  25.9763907  37.2997303   7.8429321
  25.1109427  37.2882994   7.7312092  26.0762723  37.1127526   8.6900460
  25.8638074  37.2703364   7.9518265  41.9666837  38.7730984  12.6562081
  42.3921909  38.2505406  12.1032506  41.6023757  39.3711822  12.1350704
  41.9753440  38.7841211  12.4971090  31.6020917  47.0695202  11.4159426
  31.9167476  47.8831590  11.4237208  32.0114331  46.6845420  12.0841585
  31.7089015  47.1323904  11.5163518  38.5545437  42.4865248   8.9863238
  39.0256615  43.2005511   9.1553223  38.8905615  41.8863999   9.5223108
  38.6740552  42.5036713   9.0895614  35.4714932  27.2592719  15.9421333
  35.6042837  26.4623712  16.2702308  35.8560085  27.7859122  16.5219608
  35.5471261  27.2192636  16.0764836  39.1919383  42.2783183  15.7490931
  38.6440329  41.6541066  15.4810996  39.6532412  42.4677455  15.0335010
  39.1786593  42.2142233  15.6041362  38.5447287  24.1823045  12.5402426
  37.7393251  24.0720775  12.8570264  38.4154023  24.2835501  11.6832292
  38.4067420  24.1806715  12.4610466  42.0013248  30.3468537  13.1342123
  41.4176236  30.8477744  12.7219690  42.3217542  29.8398093  12.5006446
  41.9626423  30.3460372  12.9800630  34.5408047  29.2609132   3.4100798
  35.3623741  29.4307445   3.1682493  34.0777698  29.4156393   2.6867095
  34.5939209  29.3090865   3.2672442  33.1303379  27.2551894  14.1899227
  33.6747792  26.9143021  14.7803568  33.1840314  28.1137356  14.3320511
  33.2192498  27.3307153  14.2981100  28.9433937  41.0168310  11.0638034
  29.5478795  40.9764144  10.4351855  28.7361250  41.8639462  11.0942090
  29.0022835  41.1356313  10.9754151  38.7577710  43.2834255  12.2800272
  39.5776083  43.1397221  12.5416567  38.4771787  43.9080454  12.8216710
  38.8374453  43.3544607  12.3988211  24.1785220  40.0002928  10.9336958
  24.0809498  39.1899199  11.2427014  24.9614089  39.9794721  10.5483226
  24.2801356  39.8770018  10.9223821  48.4291045  50.0274758   9.9996079
  47.5728940  50.1883256  10.0505195  48.4758698  49.1566822  10.0201140
  48.3090156  49.9225560  10.0102145  51.7384761  56.2961284  19.6056535
  52.4451529  55.8013314  19.7343469  51.9272697  56.7370365  18.8759193
  51.8712667  56.2879634  19.5165580  51.2742866  52.0866802  12.6427730
  51.8198826  52.7651889  12.7021700  51.2159742  51.9454263  11.7829312
  51.3458780  52.1658804  12.5239791  37.5881985  55.5976155   7.6548416
  37.3532169  54.7643807   7.5480685  37.7267626  55.8780820   6.8409617
  37.5737647  55.5159658   7.5190771  39.8872072  47.7661885  10.5532724
  39.2677104  47.1754532  10.3842739  39.7855936  48.3573320   9.9197047
  39.7809748  47.7665968  10.4337714  46.9839968  49.5061427   4.8865187
  47.6820133  49.6849555   5.3786650  47.2992301  48.9831766   4.2635577
  47.1335305  49.4555199   4.8667197  39.6141205  51.3114167  12.7976293
  39.4899902  51.8976612  13.4326112  40.2659490  50.8174363  13.0988568
  39.6914855  51.3252971  12.9362222  44.6399546  54.4875884  12.0763804
  45.2848549  53.9948327  11.7574753  44.8801323  54.6300670  12.9029882
  44.7710132  54.4353326  12.1513337  47.1785638  57.3330790  11.7270697
  47.4608881  56.5382195  11.5057453  47.9071798  57.8111377  11.7475758
  47.3275201  57.2865387  11.6973712  45.1566832  44.8753824   8.9686462
  44.8270162  45.3264967   8.2990161  44.4811833  44.7969987   9.5159468
  45.0077268  44.9304959   8.9509685  52.3643239  40.8639347   7.2136072
  52.0496680  41.5542825   7.6456495  51.8470181  40.8084129   6.5121573
  52.2407710  40.9574235   7.1733022  39.1499310  60.4761825   8.9304623
  38.6666888  61.2012315   8.9064206  39.9622628  60.7737955   9.0414780
  39.1990057  60.6264179   8.9431902  45.2213464  59.2694006  11.5354437
  44.7040405  58.9101421  10.9315745  45.9187855  58.7456181  11.5460503
  45.2479045  59.1391694  11.4484696  48.8777056  59.7188820  17.4970610
  48.9660401  59.5314961  18.3448820  49.3066768  59.0726250  17.0975457
  48.9539158  59.5951828  17.5642362  46.4447515  59.0019980  16.4788272
  45.8818350  58.5892590  17.0027933  47.2068539  58.9272886  16.8981416
  46.4741964  58.9297381  16.6181273  43.3622786  42.9366112   4.4509410
  44.1168754  43.3044429   4.2126460  43.1850320  43.3105666   5.2188589
  43.4477264  43.0464300   4.5294298  42.0043507  60.9918001   9.0824902
  42.7064086  60.4769990   9.1397659  41.9240990  61.3192153   9.8871778
  42.0967267  60.9632228   9.2097695  56.6557684  49.0860553  12.4956949
  55.8186105  49.1562740  12.7304543  56.6245915  49.0885047  11.6231251
  56.5275967  49.0970780  12.4016497  43.0522413  51.2293588  18.2105317
  43.2242917  51.1199483  19.0590599  43.5891771  51.8747994  17.9736510
  43.1567417  51.3085590  18.3010414  41.7179850  45.3436431   1.1487523
  41.5355424  45.5608312   0.3228515  42.5805463  45.4575444   1.2046137
  41.8184440  45.3926329   1.0342010  41.3294282  57.1824353   8.5910510
  42.1683182  57.4147286   8.6384272  41.3606051  56.3128665   8.5217546
  41.4576000  57.0881300   8.5875155  41.9546985  57.6025228  12.8923816
  42.4945210  57.4596360  13.5627188  41.2716932  58.0021979  13.2607842
  41.9339139  57.6404899  13.0458238  47.3979570  42.3462842   4.1836546
  48.1265730  42.1678797   3.7374703  47.4874462  43.1880922   4.3943724
  47.5186232  42.4446720   4.1490064  48.9897115  59.1497839  20.1614394
  49.7737532  59.2628687  20.5270136  48.7893709  58.3238976  20.3573079
  49.0763140  59.0444559  20.2448780  37.3584130  53.8225519  13.0458237
  37.0922546  53.0064636  13.2049228  37.3722695  53.8678675  12.1753753
  37.3208853  53.7082424  12.9411719  54.3365524  44.1503334  11.0800671
  54.9791433  44.2201439  11.6662587  54.5888545  43.4832557  10.5780213
  54.4687656  44.0629683  11.0927950  42.1082737  47.3603898  15.6925245
  41.4154534  46.8900877  15.9385977  42.7243064  47.1342202  16.2666952
  42.0967267  47.2571029  15.8134398  49.1467508  61.0607941  13.8080849
  48.3482754  60.8207441  14.0654718  49.5953520  61.1122334  14.5547897
  49.0942119  61.0330332  13.9565773  37.7677544  54.6084299  10.3269982
  37.5853117  54.5831185   9.4742274  38.5027213  55.0783237  10.3658891
  37.8491608  54.6745661  10.2067900  40.8323296  51.3269302  16.8352090
  41.5563268  51.3122332  17.3216985  40.9339432  52.0364657  16.3374059
  40.9541505  51.4294005  16.8330877  48.2068245  54.8068386  21.7001037
  47.4141226  55.1211898  21.8853657  48.3217172  55.0219855  20.8621822
  48.1063656  54.8852223  21.6039372  49.1352038  54.7088590  16.6386334
  49.7090900  54.0715834  16.7934898  49.0566842  54.7092672  15.7695992
  49.2085273  54.6153701  16.5332745  37.7348454  51.4877799  10.4769048
  38.3121957  51.3514250  11.1161294  37.0362516  51.0313583  10.7314633
  37.7169476  51.4000066  10.6091338  44.4915757  53.1411855   8.6907532
  44.2335001  52.3083590   8.6638831  44.5464239  53.3669468   7.8500032
  44.4615534  53.0509626   8.5627668  49.5716807  45.2440306   8.7911624
  48.8673133  44.7549491   8.9495543  49.6201781  45.2562780   7.9200069
  49.4746858  45.1729954   8.6850964  43.4650469  50.6949617   9.1772426
  42.8900060  50.8541786   9.8136387  43.0886145  50.0585027   8.7140877
  43.3253281  50.6247430   9.2026985  47.1323757  49.1672967  14.0364805
  46.7438190  48.7427185  13.3816996  46.4678456  49.4155116  14.5441831
  46.9770685  49.1411688  14.0152673  33.2107288  50.3389692   7.1916867
  33.2967539  49.9621561   7.9730397  33.8383085  49.9650138   6.7136825
  33.3163839  50.2275174   7.2362344  50.9550119  42.8647596  11.5488789
  51.3360631  42.1825767  11.9356663  50.1513403  42.5757198  11.3664453
  50.8926581  42.7214644  11.5792845  54.4572186  56.0797567  16.6471187
  54.2210823  55.2485632  16.5283248  55.1015415  56.0283175  17.2326032
  54.5166857  55.9495255  16.7157081  38.7983246  59.1081425  11.2448228
  38.8387392  59.3796276  10.4168007  39.3577770  59.6323333  11.6606015
  38.8866592  59.2257180  11.1840116  55.4808606  55.8642016  12.7099482
  55.1754423  56.5970073  13.0712797  54.7614822  55.4579946  12.4292268
  55.3295949  55.9123749  12.7212619  42.4673856  43.7592315   7.0297594
  41.5996282  43.8314915   7.0955203  42.7549061  44.5614394   7.2185569
  42.3813604  43.8886462   7.0672360  51.5906745  43.9070175  15.3608916
  52.3360337  43.7179985  14.9472341  51.1744050  44.4328413  14.8022772
  51.6391719  43.9572320  15.2173489  58.9669016  51.2779403  10.3114420
  59.5176937  50.6447472  10.5511513  58.9513131  51.8094796  11.0029925
  59.0454212  51.2628351  10.4493279  45.6191407  55.1118000  14.8574314
  45.1203100  55.8233768  14.9359202  46.4291631  55.4318667  14.8192476
  45.6647513  55.2644849  14.8630882  41.8819524  54.3740953   9.1037035
  41.5932773  53.7478425   9.6382762  42.7502872  54.3161241   9.1701715
  41.9679776  54.2728498   9.1927989  52.6697422  49.5175737   9.4219017
  52.3262188  48.7966072   9.7726266  52.7690465  49.3089588   8.5797375
  52.6339465  49.3799940   9.3490697  44.5458465  47.9699045  20.1536612
  43.7358240  48.2756825  20.0426454  45.0233151  48.6904627  20.2689196
  44.4961943  48.1213646  20.1543683  43.4050024  57.1844766  10.4019515
  42.8830778  57.3245057  11.0871380  43.7924045  56.4255430  10.5921633
  43.3853725  57.0930290  10.5320592  40.3941208  47.2350575   4.4714470
  40.1066004  46.8651845   3.7346417  41.0811677  47.7045430   4.2098175
  40.4530106  47.2497544   4.3229546  43.2294880  51.1003523   5.9181875
  43.9517532  51.2644681   5.4585681  42.7502873  51.8213188   5.8121214
  43.2658611  51.2301752   5.8347489  51.1888388  47.4367322  11.2978560
  50.3499488  47.4628600  11.0616823  51.2592755  48.0838057  11.8783906
  51.0756781  47.5363447  11.3487676  40.8802497  53.5061595  15.0236015
  41.3923594  53.7845848  14.3744774  40.5938839  54.2450889  15.3898828
  40.9137360  53.6563949  14.9825893  49.6357666  44.3352699   6.0306176
  50.3384019  44.1360447   5.5526134  49.3701855  43.5628641   6.3375019
  49.7004298  44.1915665   6.0051617  37.9669403  48.0131787   5.3199751
  38.0685539  48.8157948   5.6480726  38.7625290  47.8119123   5.0222832
  38.0997309  48.1017686   5.3235106  44.3986222  45.5987984  15.0837056
  44.2069419  45.6143118  15.9336480  45.2484818  45.7951658  15.0603711
  44.4961944  45.6302335  15.2060351  38.7833135  48.1278965  13.0620873
  38.6418627  47.2762906  13.1865381  39.0673698  48.1707626  12.2383079
  38.8040981  48.0078715  12.9588497  48.9371727  49.9646055   7.2065361
  48.6906442  49.8841806   8.0402150  49.2656850  49.1799523   7.0127888
  48.9492971  49.8372321   7.3012884  52.8319776  56.6729415  10.9952142
  52.6934136  57.3710461  11.5000884  52.0519774  56.5178071  10.6388324
  52.6963003  56.7529581  11.0178416  51.1697861  52.9725790  17.2474524
  51.1645900  52.1005607  17.2516950  51.8758855  53.1713959  16.7743979
  51.2742865  52.8729664  17.1781559  44.8968755  52.7002774  16.6188344
  45.0412130  53.2803982  15.9831454  45.2444403  53.0779071  17.3238199
  44.9696216  52.8423478  16.6287339  47.0688672  51.8992942  14.4013476
  46.3211986  52.0923957  13.9961754  47.2230197  51.0738162  14.1637597
  46.9811100  51.8058054  14.3058881  43.9696510  60.8905546  13.4849371
  44.1186073  60.3308462  12.8322775  44.7496512  60.9697548  13.8681890
  44.1070603  60.8191111  13.4446320  46.4949810  61.0620189  14.7633862
  46.4193481  60.3928999  15.3184650  46.4239669  61.7637977  15.2774528
  46.4730417  61.0665096  14.9210710  47.3090449  45.7943493  15.2908879
  47.7663063  46.5267467  15.4181671  47.3846778  45.3709958  16.0496135
  47.3881419  45.8400731  15.4209956  39.5523440  46.0409313  16.3798323
  39.0165630  45.4289671  16.6959090  39.6141205  46.6157449  17.0331990
  39.4819073  46.0356241  16.5233750  51.7817775  38.9733368   9.1602722
  51.9001343  39.4309832   8.4270025  51.6079951  38.1678630   8.8738940
  51.7736946  38.9227140   9.0103656  45.1872827  47.7845597  12.1350703
  44.3968902  47.6037057  12.4568039  45.5833450  47.0072550  12.1180998
  45.1289703  47.6433058  12.1803252  50.5716513  55.4188027   9.8610149
  49.8961515  55.1873259  10.3623536  50.5808889  54.8109210   9.2352254
  50.4735018  55.2946952   9.8426301  47.7010657  50.2605856  16.6174202
  47.6369798  51.1215813  16.4894339  47.8407845  49.9437849  15.8169753
  47.7126127  50.3406023  16.4802415  46.3829751  52.9537995  10.7590405
  45.9592000  53.1542495  10.0229423  46.2074606  52.1066843  10.8714705
  46.2940632  52.8586777  10.6664095  45.8841445  64.4688508  13.2211862
  46.3737375  63.7699298  13.0387527  45.3125677  64.1712378  13.8087920
  45.8725975  64.3214732  13.2812903  41.6712196  53.4490047   6.1918378
  41.8276815  53.3836850   7.0474370  42.0112789  54.2238599   5.9797057
  41.7445431  53.5539245   6.2872972  52.0808448  57.0350578  22.1738653
  52.8943313  56.7635727  22.3343786  51.9203414  56.7358118  21.3698849
  52.1778397  56.9505504  22.0784059  49.3580610  47.7184235  15.1134041
  49.5722580  47.0795149  14.5597395  48.7414509  48.1630059  14.6841903
  49.2985939  47.6894379  14.9684472  38.2446458  50.6324997   6.5079145
  38.6245422  51.0509542   5.8439412  37.6701822  51.2138453   6.8147988
  38.2157782  50.7802856   6.4555886  51.5219698  49.3273300  16.0517348
  50.7096380  49.0199191  16.1330521  51.9809633  48.8472300  16.6160061
  51.4700083  49.2109793  16.1471943  48.7495339  40.8284171  10.1021384
  47.8788897  40.8022892  10.0554694  49.0035680  40.6561363   9.2847230
  48.6588899  40.7994314   9.9741521  48.6173206  50.7333372  20.8346051
  49.0872837  51.3575488  21.2213925  48.6635086  50.0650347  21.3939265
  48.6941081  50.7268052  20.9746122  45.7744479  42.8390399  11.5594854
  45.2582968  42.1470591  11.6846433  45.2138408  43.5061176  11.5057453
  45.6150993  42.8353657  11.5700920  47.8436713  43.3783359  13.3887707
  47.4568466  43.4032391  14.1701237  47.3569650  42.8125038  12.9362224
  47.7149222  43.2979110  13.4375611  52.0929692  58.0956868  17.4461494
  52.7309413  57.6017064  17.1123950  51.4503784  58.0234269  16.8613720
  52.0923919  58.0115877  17.3103849  53.8186692  49.9446014  12.0127409
  53.3914300  49.8572363  11.2575509  53.1812745  50.0523790  12.5982253
  53.6616299  49.9478674  11.9872851  47.5093854  40.2650345  15.6797967
  48.1386972  40.8010645  15.4019037  47.6779717  40.1727704  16.5311533
  47.6271649  40.3311707  15.7646495  47.3107769  45.0521539  17.9524379
  48.1381199  44.7806688  18.0082993  47.3315615  45.8482381  18.3088197
  47.4360619  45.1301294  18.0139561  52.1483949  58.7876676  14.0866850
  52.9376327  58.4365741  14.2068932  52.3227547  59.6013065  13.8243484
  52.2904230  58.8562534  14.0654718  41.8877259  52.1985402  11.1394639
  41.0465266  52.0989276  11.3473533  42.0967267  52.9680882  11.4908960
  41.7941952  52.2977446  11.2221954  39.3652826  49.8204939   8.9679390
  38.9709524  49.8947951   8.1929500  38.8092943  50.2062885   9.5187752
  39.2255638  49.8886714   8.9347050  51.0017773  42.7986233   8.6483269
  51.2067366  42.7308541   9.4940266  50.6744197  43.6045054   8.5804446
  50.9833021  42.9072174   8.7642924  45.6993924  50.1266801  10.3892237
  45.3957062  49.5722790  10.9902644  44.9973345  50.3059011   9.9020271
  45.5510134  50.0711584  10.4061942  44.7560021  47.4367321   4.9536939
  45.0319755  46.7186234   4.5414506  45.3558690  48.0352241   4.7458045
  44.8853286  47.4187692   4.8617700  43.7612275  57.3416522  15.0964335
  43.6532630  57.3518584  15.9626393  43.9708057  58.1671302  14.9069288
  43.7762386  57.4657597  15.1968426  54.2551461  43.3517997   8.1286034
  53.6425774  43.8388400   8.5139766  54.3515636  42.6761488   8.6723685
  54.1789358  43.3236306   8.2664892  48.2570542  45.1080839   3.2283534
  48.7114288  45.2791399   3.9531378  48.7310587  44.4948949   2.8281309
  48.3938862  45.0431724   3.2757295  41.7786067  54.5929164  12.5586272
  41.1874000  55.2338663  12.5289287  42.5407091  55.0166782  12.5317572
  41.8034328  54.7505003  12.5501419  42.1746690  45.7531162  13.2254290
  42.6348171  45.8270092  13.9629413  42.2202797  46.5512416  12.8754111
  42.2497245  45.8825309  13.2827046  43.8230040  46.4197857  17.7926317
  43.4315605  45.7731204  18.2282095  43.9915902  47.0109292  18.4120572
  43.7900950  46.4112125  17.9489023  57.8976489  54.4234934  13.5563550
  57.9559612  54.8721583  14.3023527  57.2642956  54.8333747  13.1193630
  57.8127784  54.5508669  13.6016099  47.5163137  43.6073632   9.3660402
  46.6699182  43.7796440   9.2401752  47.5134270  42.8022976   9.7026231
  47.3910287  43.5134661   9.3971529  48.5861437  47.3848846  10.2322460
  48.1121392  46.8590608  10.7427771  48.9579573  46.8378319   9.6637322
  48.5711326  47.2264843  10.2237607  38.9634468  49.3820353  15.6006006
  39.8260081  49.2816062  15.5143336  38.6326251  48.8015062  15.0391578
  39.0419664  49.2811980  15.5051412  54.8498168  52.4451222  11.6429241
  54.6096391  51.6057637  11.6471667  55.3290175  52.5251389  12.3670014
  54.8850352  52.3332622  11.7504043  56.8503355  49.2252679   9.5958500
  56.6113125  49.1848513   8.7579284  57.0137256  50.0723831   9.7224221
  56.8393659  49.3444764   9.4911982  53.4549385  53.6102628  15.5263545
  54.1783584  53.1575155  15.3474565  53.1899348  53.8907294  14.7435873
  53.5230659  53.5853597  15.3842260  42.3236254  48.2062802  12.2616424
  41.6989324  48.2181194  11.6542377  41.9881848  48.6822977  12.9107664
  42.1821745  48.2781319  12.2672993  39.0361929  56.2663262  13.7020188
  38.5061854  55.5755701  13.7515163  39.3087022  56.2573447  12.8732897
  38.9986651  56.1630394  13.5867604  49.2368175  53.7086507  13.6758560
  48.6225168  53.1644557  13.9707195  49.7535460  53.1950743  13.1964376
  49.2223837  53.5522916  13.6482788  48.4764472  54.7790777  11.4102859
  48.0492080  54.1540495  10.9768294  48.4689416  54.4965698  12.2361866
  48.4123613  54.6443557  11.4682686  41.5926999  49.8155950  14.4791293
  41.7520486  49.0599274  14.8843015  41.4119893  50.3646889  15.1332030
  41.5892358  49.7849763  14.6353999  49.5347302  41.9817185  15.0342082
  49.0387863  42.1780859  14.3433649  50.2916364  42.3809854  14.8630884
  49.5734127  42.0694919  14.9062219  46.8050182  45.6559531  11.6245393
  46.8292669  45.1219643  10.9358173  47.0561655  45.1476840  12.2870983
  46.8460100  45.5020435  11.6210037  34.3157771  52.9391026  11.0588537
  34.2101220  52.8937870  10.1940621  33.5657991  53.2844807  11.3402822
  34.1893374  52.9831934  10.9725866  43.0851504  44.3830349  11.0051137
  43.1249875  44.8839556  11.7185844  42.2601168  44.4740743  10.7357060
  42.9691030  44.4712166  11.0701675  45.2681117  53.9491089  19.1071432
  44.4176747  54.0862804  19.2429076  45.4309244  53.2154868  19.5519133
  45.1664980  53.8605191  19.1927031  44.5065867  50.8990859  13.3025036
  43.6757797  51.0664677  13.0960284  44.4517384  50.5226810  14.0873921
  44.3755282  50.8680591  13.3873564  42.8801911  49.1746451   3.8315154
  43.0204872  49.6718915   4.5343795  43.3784444  48.4732745   3.9729367
  42.9742992  49.1448430   3.9566733  55.8884699  52.5729039  14.0294095
  56.4802539  53.2126290  14.0612293  56.3243694  51.8752076  14.3186161
  56.0403130  52.5647390  14.0774927  47.7178089  56.9946412  14.6551989
  47.2103180  57.5482258  15.0992619  47.4204735  57.0554701  13.8370763
  47.5982974  57.0852723  14.6000445  49.8840271  45.3599731  13.4976652
  50.3095343  44.9072258  12.8860178  49.2697264  44.8059802  13.7741439
  49.8568917  45.2113707  13.4481677  39.4155121  52.2381403   4.4297277
  39.9247351  52.8345910   4.8108582  39.8889394  51.9707376   3.7473696
  39.5598497  52.2867218   4.3851799  48.3234494  41.8314831   6.9067229
  47.6802812  41.6812477   7.4752367  47.9833901  41.5857176   6.1416333
  48.1779571  41.7726953   6.8770244  53.0761968  46.2430141   9.2387610
  53.4289578  45.8159864   9.9133409  52.2176769  46.1580985   9.3688687
  53.0011413  46.1674882   9.3582621  41.7745653  48.8737661   7.2970457
  41.0557642  49.2901794   7.5643320  42.1458015  49.4391900   6.7462095
  41.7237585  49.0186943   7.2553264  51.0745234  49.5065510  13.1872453
  51.0543161  49.3248805  14.0407231  51.1224435  50.3777529  13.1632036
  51.0779875  49.6082048  13.3095747  49.0191564  56.0952702  19.1120929
  48.9787419  55.4502379  18.5266085  49.8314882  56.0389319  19.4246341
  49.1334717  55.9911669  19.0717878  54.5086028  41.3648553  10.1671923
  54.0016893  40.6577693  10.0993100  55.3053462  41.0341742  10.2972999
  54.5513267  41.2121705  10.1770918  50.4250044  47.8715166   6.0645587
  50.1963737  47.8947867   5.2223945  50.6848120  47.0472633   6.1840597
  50.4296232  47.7531245   5.9570784  44.7069272  49.7249639  15.6670687
  44.1948175  49.1170822  16.0255718  44.5348769  50.4406231  16.1344663
  44.6058909  49.7412938  15.7886910  43.4794806  46.4091712   7.3599782
  43.9552173  46.7708792   6.7249963  42.9783406  47.0648179   7.6399925
  43.4760165  46.5585901   7.3076523  48.5838343  47.6473883  18.1072942
  49.1409773  47.4187693  17.4751408  48.2599408  48.4079549  17.8308155
  48.6184753  47.7257720  17.9729439  36.4537052  51.0734079  13.5761538
  35.9063771  50.4034725  13.6942407  37.2429430  50.7063927  13.6405006
  36.4889235  50.9199066  13.6030239  46.3021460  50.7341537  19.0724950
  47.0532787  51.0493213  19.3864504  46.4944036  50.5320707  18.2458871
  46.4412874  50.7508918  18.9968345  53.1506750  46.8615103   6.3148745
  53.1500977  46.7063759   7.1733021  52.9462930  47.7078090   6.2590131
  53.1206528  46.9635724   6.4336684  35.2124021  50.2854887  10.7307562
  35.0345782  49.8331496  11.4562477  34.9243043  51.0881049  10.9146039
  35.1436974  50.3377445  10.8651064  50.8747602  51.5412605   9.9684952
  51.3701267  50.8235600   9.9288972  50.0647378  51.2383402   9.8539439
  50.8291495  51.3910251   9.9458678  36.9496491  52.8182611   7.8429321
  36.0842010  52.8068301   7.7312092  37.0495307  52.6312834   8.6900460
  36.8370658  52.7888672   7.9518265  52.9399421  54.2916292  12.6562081
  53.3654493  53.7690714  12.1032506  52.5756341  54.8897130  12.1350704
  52.9486024  54.3026519  12.4971090  42.5753501  62.5880510  11.4159426
  42.8900060  63.4016898  11.4237208  42.9846914  62.2030728  12.0841585
  42.6821599  62.6509212  11.5163518  51.6155005  59.6151870  21.1655310
  51.7251971  58.8260430  21.5212057  51.9445902  59.5257806  20.3629648
  51.6807411  59.4857723  21.0997701  46.4447515  42.7778027  15.9421333
  46.5775421  41.9809020  16.2702308  46.8292668  43.3044430  16.5219608
  46.5203844  42.7377944  16.0764836  50.1651967  57.7968491  15.7490931
  49.6172913  57.1726374  15.4810996  50.6264996  57.9862763  15.0335010
  50.1519176  57.7327541  15.6041362  49.5179871  39.7008353  12.5402426
  48.7125834  39.5906083  12.8570264  49.3886606  39.8020809  11.6832292
  49.3800003  39.6992023  12.4610466  52.9745831  45.8653845  13.1342123
  52.3908820  46.3663051  12.7219690  53.2950125  45.3583401  12.5006446
  52.9359007  45.8645680  12.9800630  45.5140630  44.7794440   3.4100798
  46.3356325  44.9492753   3.1682493  45.0510281  44.9341701   2.6867095
  45.5671793  44.8276173   3.2672442  44.1035962  42.7737202  14.1899227
  44.6480375  42.4328329  14.7803568  44.1572898  43.6322664  14.3320511
  44.1925082  42.8492461  14.2981100  39.9166521  56.5353618  11.0638034
  40.5211378  56.4949452  10.4351855  39.7093834  57.3824770  11.0942090
  39.9755418  56.6541621  10.9754151  49.7310293  58.8019563  12.2800272
  50.5508667  58.6582529  12.5416567  49.4504371  59.4265762  12.8216710
  49.8107036  58.8729915  12.3988211  35.1517803  55.5188236  10.9336958
  35.0542081  54.7084507  11.2427014  35.9346673  55.4980029  10.5483226
  35.2533940  55.3955326  10.9223821  54.0254997  66.7478896  18.2105317
  54.1975501  66.6384791  19.0590599  54.5624355  67.3933302  17.9736510
  54.1300001  66.8270898  18.3010414  53.0815320  62.8789205  15.6925245
  52.3887117  62.4086185  15.9385977  53.6975648  62.6527510  16.2666952
  53.0699850  62.7756337  15.8134398  55.8874543  60.8887102  21.4151397
  55.5727984  61.6586664  21.1520960  55.5664475  60.3257358  20.8303624
  55.7933462  60.9197370  21.2892747  55.5191048  63.4884353  20.1536612
  54.7090824  63.7942132  20.0426454  55.9965735  64.2089935  20.2689196
  55.4694527  63.6398954  20.1543683  55.3718806  61.1173292  15.0837056
  55.1802003  61.1328426  15.9336480  56.2217402  61.3136966  15.0603711
  55.4694528  61.1487643  15.2060351  50.5256024  61.5594621  16.3798323
  49.9898213  60.9474979  16.6959090  50.5873789  62.1342757  17.0331990
  50.4551657  61.5541549  16.5233750  59.5905789  66.2518680  20.8346051
  60.0605420  66.8760796  21.2213925  59.6367669  65.5835655  21.3939265
  59.6673665  66.2453360  20.9746122  58.4826438  55.7835653  15.6797967
  59.1119556  56.3195953  15.4019037  58.6512301  55.6913012  16.5311533
  58.6004233  55.8497015  15.7646495  58.2840353  60.5706847  17.9524379
  59.1113782  60.2991996  18.0082993  58.3048199  61.3667689  18.3088197
  58.4093203  60.6486602  18.0139561  54.7962623  61.9383165  17.7926317
  54.4048188  61.2916512  18.2282095  54.9648486  62.5294600  18.4120572
  54.7633533  61.9297433  17.9489023  49.9367051  64.9005661  15.6006006
  50.7992664  64.8001370  15.5143336  49.6058834  64.3200370  15.0391578
  50.0152248  64.7997288  15.5051412  53.2882234  59.9085060  18.9381447
  53.9134937  59.3647193  19.2110879  52.8332714  59.4279978  18.3689237
  53.3130495  59.7574541  18.8943040  50.5267571  63.6872522  18.3173049
  50.3570161  64.3473897  17.7721255  50.0833521  63.8979083  19.0385538
  50.4366904  63.8158504  18.3434678  59.5570926  63.1659191  18.1072942
  60.1142356  62.9373001  17.4751408  59.2331991  63.9264857  17.8308155
  59.5917336  63.2443028  17.9729439  57.2754044  66.2526844  19.0724950
  58.0265371  66.5678521  19.3864504  57.4676620  66.0506015  18.2458871
  57.4145458  66.2694226  18.9968345  57.4180099  58.2963335  15.9421333
  57.5508005  57.4994328  16.2702308  57.8025252  58.8229738  16.5219608
  57.4936428  58.2563252  16.0764836  55.0768546  58.2922510  14.1899227
  55.6212959  57.9513637  14.7803568  55.1305482  59.1507972  14.3320511
  55.1657665  58.3677769  14.2981100  40.4603002  17.7154107   6.5396582
  41.1669769  17.2206138   6.6683516  40.6490937  18.1563188   5.8099240
  40.5930907  17.7072457   6.4505627  37.5995296  21.1381643   4.4310657
  37.6878642  20.9507784   5.2788867  38.0285009  20.4919073   4.0315504
  37.6757398  21.0144651   4.4982408  35.1665756  20.4212803   3.4128319
  34.6036591  20.0085413   3.9367980  35.9286779  20.3465709   3.8321462
  35.1960204  20.3490204   3.5521319  37.7115355  20.5690662   7.0954440
  38.4955772  20.6821510   7.4610183  37.5111950  19.7431800   7.2913126
  37.7981381  20.4637382   7.1788826  37.8685749  22.4800764   0.7420896
  37.0700994  22.2400265   0.9994765  38.3171760  22.5315157   1.4887944
  37.8160360  22.4523156   0.8905820  36.9286485  16.2261209   8.6341084
  36.1359466  16.5404721   8.8193704  37.0435413  16.4412678   7.7961869
  36.8281896  16.3045046   8.5379419  43.1790426  17.4990391   3.5811234
  42.9429064  16.6678456   3.4623295  43.8233655  17.4475998   4.1666078
  43.2385097  17.3688079   3.6497128  39.8916102  14.3918613   4.1814571
  39.8864140  13.5198430   4.1856997  40.5977096  14.5906783   3.7084026
  39.9961106  14.2922488   4.1121606  35.2168051  22.4813012   1.6973908
  35.1411722  21.8121823   2.2524697  35.1457910  23.1830800   2.2114575
  35.1948658  22.4857919   1.8550757  34.6059685  25.8881332   0.1551909
  35.0955615  25.1892121  -0.0272426  34.0343917  25.5905202   0.7427967
  34.5944215  25.7407555   0.2152950  40.8026689  18.4543401   9.1078700
  41.6161554  18.1828550   9.2683832  40.6421655  18.1550941   8.3038896
  40.8996637  18.3698327   9.0124106  37.3391446  12.1526195   7.7686098
  37.8091077  12.7768311   8.1553972  37.3853326  11.4843170   8.3279312
  37.4159322  12.1460875   7.9086169  40.8147933  19.5149691   4.3801540
  41.4527653  19.0209887   4.0463996  40.1722024  19.4427092   3.7953767
  40.8142159  19.4308700   4.2443895  40.8702189  20.2069500   1.0206897
  41.6594567  19.8558564   1.1408979  41.0445787  21.0205888   0.7583531
  41.0122471  20.2755357   0.9994765  46.6194729  15.8427757   0.4903597
  46.6777853  16.2914406   1.2363574  45.9861197  16.2526570   0.0533677
  46.5346024  15.9701492   0.5356145  33.9899357  15.3683913   6.0411478
  33.1394988  15.5055627   6.1769123  34.1527485  14.6347691   6.4859180
  33.8883221  15.2798014   6.1267078  37.7409804  17.5145525   6.0460976
  37.7005659  16.8695202   5.4606132  38.5533122  17.4582143   6.3586388
  37.8552958  17.4104492   6.0057925  40.3373245  21.0344693   8.0995357
  40.4470211  20.2453254   8.4552104  40.6664142  20.9450629   7.2969695
  40.4025651  20.9050546   8.0337748  38.8870207  19.2161314   2.6830977
  38.3391153  18.5919197   2.4151043  39.3483236  19.4055586   1.9675057
  38.8737417  19.1520364   2.5381409  48.1241869  26.9652889  -3.0663875
  47.2679764  27.1261387  -3.0154758  48.1709522  26.0944953  -3.0458813
  48.0040980  26.8603691  -3.0557809  51.4335585  33.2339415   6.5396582
  52.1402353  32.7391446   6.6683516  51.6223521  33.6748496   5.8099240
  51.5663491  33.2257765   6.4505627  50.9693690  29.0244933  -0.4232223
  51.5149650  29.7030020  -0.3638253  50.9110566  28.8832394  -1.2830641
  51.0409604  29.1036935  -0.5420162  39.3092029  28.2492298  -0.2683660
  39.1850726  28.8354744   0.3666159  39.9610314  27.7552494   0.0328615
  39.3865679  28.2631103  -0.1297731  44.3350370  31.4254015  -0.9896149
  44.9799373  30.9326458  -1.3085201  44.5752147  31.5678802  -0.1630071
  44.4660955  31.3731457  -0.9146616  46.8736462  34.2708921  -1.3389256
  47.1559705  33.4760327  -1.5602501  47.6022622  34.7489508  -1.3184195
  47.0226025  34.2243518  -1.3686241  38.8450134  37.4139957  -4.1355331
  38.3617712  38.1390446  -4.1595747  39.6573452  37.7116087  -4.0245173
  38.8940881  37.5642310  -4.1228051  44.9164288  36.2072137  -1.5305516
  44.3991229  35.8479552  -2.1344208  45.6138679  35.6834312  -1.5199450
  44.9429869  36.0769825  -1.6175257  48.5727880  36.6566951   4.4310657
  48.6611225  36.4693092   5.2788867  49.0017592  36.0104381   4.0315504
  48.6489982  36.5329959   4.4982408  46.1398339  35.9398111   3.4128319
  45.5769174  35.5270721   3.9367980  46.9019363  35.8651017   3.8321462
  46.1692788  35.8675512   3.5521319  41.6994331  37.9296132  -3.9835051
  42.4014910  37.4148122  -3.9262294  41.6191814  38.2570284  -3.1788176
  41.7918091  37.9010359  -3.8562259  42.7473237  28.1671719   5.1445364
  42.9193741  28.0577614   5.9930646  43.2842595  28.8126125   4.9076557
  42.8518241  28.2463721   5.2350461  41.0245106  34.1202484  -4.4749443
  41.8634006  34.3525417  -4.4275681  41.0556875  33.2506796  -4.5442407
  41.1526824  34.0259431  -4.4784798  41.6497809  34.5403360  -0.1736137
  42.1896034  34.3974491   0.4967235  40.9667756  34.9400110   0.1947889
  41.6289963  34.5783031  -0.0201716  48.6847939  36.0875970   7.0954440
  49.4688355  36.2006818   7.4610183  48.4844533  35.2617107   7.2913126
  48.7713964  35.9822690   7.1788826  37.0534954  30.7603650  -0.0201716
  36.7873370  29.9442767   0.1389275  37.0673518  30.8056806  -0.8906200
  37.0159677  30.6460555  -0.1248234  41.8033561  24.2982029   2.6265292
  41.1105357  23.8279008   2.8726024  42.4193888  24.0720333   3.2006999
  41.7918091  24.1949161   2.7474445  48.8418332  37.9986072   0.7420896
  48.0433578  37.7585572   0.9994765  49.2904344  38.0500465   1.4887944
  48.7892943  37.9708464   0.8905820  37.4628368  31.5462430  -2.7389971
  37.2803941  31.5209316  -3.5917679  38.1978037  32.0161368  -2.7001063
  37.5442432  31.6123792  -2.8592053  40.5274120  28.2647433   3.7692137
  41.2514092  28.2500463   4.2557032  40.6290256  28.9742788   3.2714105
  40.6492329  28.3672136   3.7670924  47.9019069  31.7446517   8.6341084
  47.1092050  32.0590029   8.8193704  48.0167996  31.9597986   7.7961869
  47.8014480  31.8230354   8.5379419  48.8302862  31.6466721   3.5726381
  49.4041724  31.0093965   3.7274945  48.7517666  31.6470804   2.7036039
  48.9036097  31.5531832   3.4672792  37.4299278  28.4255931  -2.5890905
  38.0072781  28.2892381  -1.9498660  36.7313340  27.9691715  -2.3345320
  37.4120300  28.3378197  -2.4568615  44.1866580  30.0789986  -4.3752422
  43.9285825  29.2461721  -4.4021122  44.2415063  30.3047599  -5.2159921
  44.1566358  29.9887757  -4.5032285  43.1601293  27.6327749  -3.8887527
  42.5850884  27.7919917  -3.2523566  42.7836969  26.9963158  -4.3519076
  43.0204105  27.5625562  -3.8632968  46.8274581  26.1051098   0.9704852
  46.4389014  25.6805316   0.3157043  46.1629280  26.3533248   1.4781878
  46.6721509  26.0789819   0.9492719  54.1523010  33.0175699   3.5811234
  53.9161647  32.1863763   3.4623295  54.7966239  32.9661306   4.1666078
  54.2117680  32.8873387   3.6497128  38.4934070  36.0459556  -1.8211726
  38.5338215  36.3174408  -2.6491946  39.0528594  36.5701465  -1.4053938
  38.5817416  36.1635312  -1.8819837  44.6092783  22.3079925   8.3491444
  44.2946224  23.0779488   8.0861007  44.2882716  21.7450181   7.7643671
  44.5151702  22.3390194   8.2232794  55.1759430  32.8020147  -0.3560471
  54.8705247  33.5348204   0.0052844  54.4565646  32.3958077  -0.6367685
  55.0246773  32.8501880  -0.3447334  46.1842900  34.2843643  -4.0252243
  46.2581908  34.1218814  -3.1710393  47.0012406  34.4733832  -4.2691761
  46.3159258  34.2880385  -3.9354218  39.9448656  34.6301505  -6.9957800
  39.1186774  34.8763243  -7.1223521  40.0060648  34.5513586  -6.1295742
  39.8322823  34.6546454  -6.8868855  51.2857569  20.8448306   2.2948962
  52.0311161  20.6558116   1.8812388  50.8694874  21.3706544   1.7362819
  51.3342543  20.8950451   2.1513536  45.3142231  32.0496132   1.7914361
  44.8153924  32.7611899   1.8699249  46.1242455  32.3696798   1.7532523
  45.3598337  32.2022980   1.7970929  41.5770348  31.3119085  -3.9622918
  41.2883597  30.6856556  -3.4277191  42.4453696  31.2539372  -3.8958238
  41.6630600  31.2106629  -3.8731964  44.2409289  24.9077176   7.0876659
  43.4309064  25.2134956   6.9766501  44.7183975  25.6282758   7.2029243
  44.1912767  25.0591777   7.0883730  43.1000848  34.1222897  -2.6640438
  42.5781602  34.2623189  -1.9788573  43.4874869  33.3633561  -2.4738321
  43.0804549  34.0308421  -2.5339361  50.8839211  24.3745453  -1.7681394
  50.0450312  24.4006732  -2.0043130  50.9543579  25.0216188  -1.1876047
  50.7707605  24.4741579  -1.7172277  40.5753321  30.4439726   1.9576061
  41.0874417  30.7223980   1.3084821  40.2889663  31.1829020   2.3238874
  40.6088184  30.5942080   1.9165939  44.0937046  22.5366115   2.0177103
  43.9020243  22.5521249   2.8676526  44.9435642  22.7329789   1.9943758
  44.1912768  22.5680466   2.1400398  38.4783959  25.0657096  -0.0039081
  38.3369451  24.2141037   0.1205427  38.7624522  25.1085757  -0.8276875
  38.4991805  24.9456846  -0.1071457  52.5270600  33.6107546  -2.0707811
  52.3884959  34.3088592  -1.5659069  51.7470598  33.4556202  -2.4271629
  52.3913827  33.6907713  -2.0481537  50.8648685  29.9103921   4.1814571
  50.8596724  29.0383738   4.1856997  51.5709679  30.1092090   3.7084026
  50.9693689  29.8107795   4.1121606  44.5919579  29.6380905   3.5528391
  44.7362954  30.2182113   2.9171501  44.9395227  30.0157202   4.2578245
  44.6647040  29.7801609   3.5627386  46.7639496  28.8371074   1.3353522
  46.0162810  29.0302088   0.9301800  46.9181021  28.0116293   1.0977644
  46.6761924  28.7436185   1.2398928  43.6647334  37.8283677   0.4189418
  43.8136897  37.2686593  -0.2337178  44.4447336  37.9075679   0.8021936
  43.8021427  37.7569242   0.3786367  46.1900634  37.9998320   1.6973908
  46.1144305  37.3307130   2.2524697  46.1190493  38.7016108   2.2114575
  46.1681241  38.0043227   1.8550757  47.0041273  22.7321624   2.2248926
  47.4613887  23.4645599   2.3521718  47.0797602  22.3088090   2.9836182
  47.0832243  22.7778862   2.3550003  39.2474264  22.9787444   3.3138370
  38.7116454  22.3667802   3.6299137  39.3092029  23.5535580   3.9672036
  39.1769897  22.9734372   3.4573797  44.8823651  24.7223728  -0.9309250
  44.0919726  24.5415188  -0.6091914  45.2784274  23.9450681  -0.9478955
  44.8240527  24.5811189  -0.8856702  50.2667337  32.3566158  -3.2049804
  49.5912339  32.1251391  -2.7036417  50.2759713  31.7487341  -3.8307699
  50.1685842  32.2325084  -3.2233652  47.3961481  27.1983987   3.5514249
  47.3320622  28.0593944   3.4234386  47.5358669  26.8815981   2.7509800
  47.4076951  27.2784154   3.4142462  46.0780575  29.8916127  -2.3069548
  45.6542824  30.0920626  -3.0430530  45.9025430  29.0444975  -2.1945248
  45.9891456  29.7964908  -2.3995858  45.5792269  41.4066640   0.1551909
  46.0688199  40.7077429  -0.0272426  45.0076501  41.1090510   0.7427967
  45.5676798  41.2592863   0.2152950  51.7759272  33.9728709   9.1078700
  52.5894137  33.7013858   9.2683832  51.6154238  33.6736249   8.3038896
  51.8729221  33.8883635   9.0124106  49.0531434  24.6562366   2.0474088
  49.2673404  24.0173280   1.4937442  48.4365333  25.1008190   1.6181950
  48.9936763  24.6272510   1.9024519  51.2170522  26.2651431   2.9857395
  50.4047204  25.9577322   3.0670568  51.6760457  25.7850432   3.5500107
  51.1650907  26.1487924   3.0811989  48.3124030  27.6711503   7.7686098
  48.7823661  28.2953619   8.1553972  48.3585910  27.0028478   8.3279312
  48.3891905  27.6646183   7.9086169  47.5387537  20.3161490   0.3227754
  47.1519290  20.3410522   1.1041284  47.0520474  19.7503169  -0.1297730
  47.4100046  20.2357241   0.3715658  51.7880516  35.0334999   4.3801540
  52.4260237  34.5395195   4.0463996  51.1454608  34.9612400   3.7953767
  51.7874743  34.9494008   4.2443895  53.5137516  26.8824145  -1.0532544
  53.0865124  26.7950494  -1.8084444  52.8763569  26.9901921  -0.4677700
  53.3567123  26.8856805  -1.0787102  47.2044678  17.2028476   2.6138014
  47.8337796  17.7388776   2.3359084  47.3730541  17.1105835   3.4651579
  47.3222473  17.2689838   2.6986542  47.0058593  21.9899671   4.8864425
  47.8332023  21.7184819   4.9423040  47.0266439  22.7860512   5.2428244
  47.1311443  22.0679425   4.9479608  51.8434773  35.7254808   1.0206897
  52.6327151  35.3743872   1.1408979  52.0178371  36.5391196   0.7583531
  51.9855054  35.7940665   0.9994765  41.5828083  29.1363533  -1.9265314
  40.7416090  29.0367408  -1.7186420  41.7918091  29.9059014  -1.5750993
  41.4892776  29.2355577  -1.8437999  45.3944748  27.0644933  -2.6767716
  45.0907885  26.5100921  -2.0757309  44.6924169  27.2437142  -3.1639682
  45.2460958  27.0089715  -2.6598011  43.4563099  34.2794653   2.0304381
  43.3483454  34.2896715   2.8966439  43.6658880  35.1049434   1.8409335
  43.4713210  34.4035728   2.1308473  41.4736891  31.5307296  -0.5073681
  40.8824824  32.1716794  -0.5370666  42.2357915  31.9544913  -0.5342382
  41.4985152  31.6883134  -0.5158534  41.8697514  22.6909293   0.1594337
  42.3298995  22.7648223   0.8969460  41.9153620  23.4890547  -0.1905842
  41.9448069  22.8203440   0.2167093  43.5180863  23.3575988   4.7266364
  43.1266429  22.7109335   5.1622141  43.6866726  23.9487424   5.3460619
  43.4851774  23.3490256   4.8829070  57.5927313  31.3613065   0.4903597
  57.6510436  31.8099714   1.2363574  56.9593780  31.7711878   0.0533677
  57.5078608  31.4886800   0.5356145  48.2812261  24.3226977  -2.8337493
  47.8072216  23.7968739  -2.3232182  48.6530397  23.7756450  -3.4022631
  48.2662150  24.1642974  -2.8422346  38.6585292  26.3198484   2.5346053
  39.5210905  26.2194193   2.4483383  38.3277075  25.7393193   1.9731625
  38.7370488  26.2190111   2.4391459  54.5448992  29.3829353  -1.4230712
  54.3047215  28.5435768  -1.4188286  55.0240999  29.4629520  -0.6989939
  54.5801176  29.2710753  -1.3155910  53.1500209  30.5480760   2.4603592
  53.8734408  30.0953286   2.2814612  52.8850171  30.8285425   1.6775920
  53.2181482  30.5231728   2.3182307  42.0187078  25.1440933  -0.8043529
  41.3940148  25.1559325  -1.4117576  41.6832672  25.6201108  -0.1552289
  41.8772569  25.2159450  -0.7986961  38.7312753  33.2041393   0.6360235
  38.2012678  32.5133832   0.6855210  39.0037846  33.1951578  -0.1927056
  38.6937475  33.1008525   0.5207651  48.9318999  30.6464638   0.6098607
  48.3175992  30.1022688   0.9047242  49.4486284  30.1328874   0.1304423
  48.9174661  30.4901047   0.5822835  48.1715296  31.7168908  -1.6557095
  47.7442904  31.0918626  -2.0891659  48.1640240  31.4343830  -0.8298087
  48.1074437  31.5821688  -1.5977267  41.2877823  26.7534081   1.4131339
  41.4471310  25.9977405   1.8183061  41.1070717  27.3025020   2.0672077
  41.2843182  26.7227895   1.5694045  49.2298126  18.9195316   1.9682129
  48.7338687  19.1158991   1.2773696  49.9867188  19.3187985   1.7970931
  49.2684951  19.0073050   1.8402266  46.5001005  22.5937662  -1.4414561
  46.5243493  22.0597775  -2.1301781  46.7512479  22.0854971  -0.7788970
  46.5410924  22.4398566  -1.4449916  34.0108595  29.8769157  -2.0071416
  33.9052044  29.8316002  -2.8719332  33.2608815  30.2222938  -1.7257132
  33.8844198  29.9210065  -2.0934087  44.9631941  30.8869221   6.0411478
  44.1127571  31.0240935   6.1769123  45.1260068  30.1532999   6.4859180
  44.8615804  30.7983322   6.1267078  44.2016691  27.8368990   0.2365083
  43.3708621  28.0042808   0.0300331  44.1468208  27.4604941   1.0213968
  44.0706106  27.8058722   0.3213611  42.0100474  21.3277883   5.8721493
  42.6353178  20.7840016   6.1450926  41.5550954  20.8472801   5.3029284
  42.0348735  21.1767365   5.8283087  55.5835523  29.5107170   0.9634141
  56.1753363  30.1504421   0.9952340  56.0194518  28.8130207   1.2526208
  55.7353954  29.5025521   1.0114974  47.4128913  33.9324543   1.5892035
  46.9054004  34.4860390   2.0332666  47.1155559  33.9932833   0.7710810
  47.2933798  34.0230854   1.5340492  49.5791095  22.2977862   0.4316698
  50.0046167  21.8450389  -0.1799775  48.9648088  21.7437933   0.7081486
  49.5519741  22.1491839   0.3821724  50.7696058  26.4443641   0.1212499
  50.7493985  26.2626936   0.9747278  50.8175258  27.3155660   0.0972083
  50.7730699  26.5460179   0.2435794  48.7142388  33.0330833   6.0460976
  48.6738242  32.3880510   5.4606132  49.5265706  32.9767451   6.3586388
  48.8285541  32.9289800   6.0057925  44.4020096  26.6627770   2.6010734
  43.8898999  26.0548953   2.9595765  44.2299592  27.3784362   3.0684709
  44.3009733  26.6791069   2.7226957  39.2485811  25.1065345   5.2513095
  39.0788401  25.7666720   4.7061302  38.8051761  25.3171906   5.9725585
  39.1585145  25.2351327   5.2774725  48.2789167  24.5852014   5.0412989
  48.8360597  24.3565824   4.4091455  47.9550232  25.3457680   4.7648202
  48.3135577  24.6635851   4.9069486  36.1487876  28.0112211   0.5101585
  35.6014595  27.3412856   0.6282454  36.9380254  27.6442058   0.5745053
  36.1840059  27.8577197   0.5370286  45.9972284  27.6719668   6.0064996
  46.7483611  27.9871345   6.3204550  46.1894860  27.4698839   5.1798918
  46.1363698  27.6887049   5.9308392  50.5698426  28.4790736  -3.0975001
  51.0652091  27.7613731  -3.1370981  49.7598202  28.1761533  -3.2120514
  50.5242319  28.3288382  -3.1201276  52.6350245  31.2294423  -0.4097873
  53.0605317  30.7068845  -0.9627448  52.2707165  31.8275261  -0.9309250
  52.6436848  31.2404650  -0.5688863  42.2704325  39.5258641  -1.6500527
  42.5850884  40.3395029  -1.6422745  42.6797738  39.1408859  -0.9818368
  42.3772423  39.5887343  -1.5496435  51.3105829  36.5530001   8.0995357
  51.4202794  35.7638561   8.4552104  51.6396726  36.4635937   7.2969695
  51.3758235  36.4235854   8.0337748  46.1398339  19.7156158   2.8761380
  46.2726245  18.9187152   3.2042355  46.5243492  20.2422561   3.4559655
  46.2154668  19.6756075   3.0104883  49.8602791  34.7346622   2.6830977
  49.3123737  34.1104505   2.4151043  50.3215819  34.9240894   1.9675057
  49.8470000  34.6705672   2.5381409  43.7986786  19.7115333   1.1239273
  44.3431199  19.3706460   1.7143615  43.8523722  20.5700795   1.2660558
  43.8875906  19.7870593   1.2321147  39.6117345  33.4731749  -2.0021919
  40.2162202  33.4327583  -2.6308098  39.4044657  34.3202901  -1.9717863
  39.6706242  33.5919752  -2.0905802  49.4261117  35.7397694  -0.7859681
  50.2459491  35.5960660  -0.5243386  49.1455195  36.3643893  -0.2443243
  49.5057860  35.8108046  -0.6671742  34.8468627  32.4566367  -2.1322996
  34.7492905  31.6462638  -1.8232939  35.6297497  32.4358160  -2.5176727
  34.9484764  32.3333457  -2.1436133  53.7205821  43.6857027   5.1445364
  53.8926325  43.5762922   5.9930646  54.2575178  44.3311433   4.9076557
  53.8250825  43.7649029   5.2350461  52.7766144  39.8167337   2.6265292
  52.0837941  39.3464316   2.8726024  53.3926472  39.5905641   3.2006999
  52.7650674  39.7134468   2.7474445  55.5825367  37.8265233   8.3491444
  55.2678808  38.5964796   8.0861007  55.2615299  37.2635489   7.7643671
  55.4884286  37.8575502   8.2232794  55.2141872  40.4262484   7.0876659
  54.4041648  40.7320264   6.9766501  55.6916559  41.1468066   7.2029243
  55.1645351  40.5777085   7.0883730  55.0669630  38.0551423   2.0177103
  54.8752827  38.0706557   2.8676526  55.9168225  38.2515097   1.9943758
  55.1645351  38.0865774   2.1400398  50.2206848  38.4972752   3.3138370
  49.6849037  37.8853110   3.6299137  50.2824613  39.0720888   3.9672036
  50.1502480  38.4919680   3.4573797  59.2856613  43.1896811   7.7686098
  59.7556244  43.8138927   8.1553972  59.3318493  42.5213786   8.3279312
  59.3624489  43.1831491   7.9086169  58.1777262  32.7213784   2.6138014
  58.8070380  33.2574084   2.3359084  58.3463125  32.6291143   3.4651579
  58.2955057  32.7875146   2.6986542  57.9791177  37.5084978   4.8864425
  58.8064606  37.2370127   4.9423040  57.9999023  38.3045820   5.2428244
  58.1044027  37.5864733   4.9479608  54.4913447  38.8761296   4.7266364
  54.0999012  38.2294643   5.1622141  54.6599310  39.4672731   5.3460619
  54.4584357  38.8675564   4.8829070  49.6317875  41.8383792   2.5346053
  50.4943488  41.7379501   2.4483383  49.3009658  41.2578501   1.9731625
  49.7103071  41.7375419   2.4391459  60.2030709  34.4380624   1.9682129
  59.7071271  34.6344299   1.2773696  60.9599772  34.8373293   1.7970931
  60.2417534  34.5258358   1.8402266  52.9833058  36.8463191   5.8721493
  53.6085761  36.3025324   6.1450926  52.5283538  36.3658109   5.3029284
  53.0081319  36.6952673   5.8283087  50.2218395  40.6250653   5.2513095
  50.0520985  41.2852028   4.7061302  49.7784344  40.8357214   5.9725585
  50.1317728  40.7536635   5.2774725  59.2521750  40.1037322   5.0412989
  59.8093180  39.8751132   4.4091455  58.9282815  40.8642988   4.7648202
  59.2868160  40.1821159   4.9069486  56.9704868  43.1904976   6.0064996
  57.7216194  43.5056652   6.3204550  57.1627444  42.9884147   5.1798918
  57.1096282  43.2072357   5.9308392  57.1130923  35.2341466   2.8761380
  57.2458829  34.4372459   3.2042355  57.4976076  35.7607869   3.4559655
  57.1887252  35.1941383   3.0104883  54.7719370  35.2300641   1.1239273
  55.3163783  34.8891768   1.7143615  54.8256305  36.0886103   1.2660558
  54.8608489  35.3055900   1.2321147   0.4666492  58.9643111  36.9385938
   1.1092400  59.0341216  37.5247853   0.7189512  58.2972334  36.4365480
   0.5988624  58.8769460  36.9513217   1.0543151  42.6917015  18.0368462
   1.0237156  43.5461652  18.2086731   1.6524500  42.3912308  18.5954605
   1.1380309  42.7733512  18.1443264   2.9855518  48.1908060  21.4931841
   2.1553221  48.4018704  21.6565258   2.9364770  47.3645115  21.2174125
   2.8562253  48.0997666  21.4769207   2.4809476  40.8378461  25.2882263
   1.6437897  40.9080648  25.5229857   2.4497707  40.8402956  24.4156565
   2.3527758  40.8488688  25.1941810   3.3764179  45.5788334  20.5216194
   4.0380613  45.0179003  20.4212103   2.7355591  45.0840365  20.8468885
   3.3793046  45.4224743  20.5548534   1.4919466  45.4355383  18.0997787
   1.8227684  45.9683023  17.4937882   2.0652555  45.4894271  18.7559738
   1.6253146  45.5224952  18.1075568   2.5998818  40.6765880  19.6037948
   2.3435383  39.8645821  19.4135831   3.4428132  40.6843447  19.3768136
   2.6864843  40.5577877  19.5422766   1.3060398  47.6159924  25.5024796
   1.0006215  48.3487981  25.8638111   0.5866614  47.2097854  25.2217582
   1.1547740  47.6641657  25.5137933   7.0062190  44.2552925  24.8293140
   6.9386690  44.2748884  23.9595726   6.9917852  45.0983252  25.0548810
   6.9940946  44.3826660  24.7345617   4.7920807  43.0297311  23.1039734
   5.3428729  42.3965380  23.3436826   4.7764923  43.5612704  23.7955238
   4.8706004  43.0146259  23.2418592   0.8897703  44.3953217  21.3765115
   0.8031677  44.5508643  22.2299894   0.4348183  45.0391292  21.0024520
   0.8100959  44.5128972  21.4472222   3.7228280  46.1752842  26.3488864
   3.7811404  46.6239491  27.0948841   3.0894748  46.5851655  25.9118944
   3.6379575  46.3026577  26.3941412   0.6749960  44.1969130  24.4354554
   0.4348182  43.3575545  24.4396981   1.1541967  44.2769297  25.1595328
   0.7102143  44.0850530  24.5429357   2.6755147  40.9770587  22.3883813
   2.4364916  40.9366421  21.5504598   2.8389048  41.8241739  22.5149535
   2.6645450  41.0962672  22.2837295   1.7136491  44.3246947  26.8219408
   2.3054331  44.9644198  26.8537606   2.1495485  43.6269984  27.1111475
   1.8654922  44.3165298  26.8700241   2.5357959  47.6331388  15.9438101
   2.9191565  48.3822744  16.1736198   1.7402073  47.8797208  15.6850090
   2.4751742  47.7801082  15.9395675  12.0275735  58.2102323  18.0368462
  11.9969739  59.0646960  18.2086731  12.6257084  57.9097616  18.5954605
  12.1112893  58.2918820  18.1443264   5.2275420  57.2977974  22.7921392
   4.3713315  57.4586472  22.8430509   5.2743074  56.4270038  22.8126453
   5.1074531  57.1928776  22.8027458   8.5369136  63.5664500  32.3981848
   9.2435904  63.0716530  32.5268783   8.7257072  64.0073581  31.6684506
   8.6697042  63.5582850  32.3090894   8.0727241  59.3570018  25.4353044
   8.6183201  60.0355105  25.4947014   8.0144117  59.2157479  24.5754625
   8.1443155  59.4362020  25.3165105   9.8492309  60.7854625  16.3086772
   9.7331835  61.5362311  16.7378910  10.6448196  60.5278578  16.5582859
   9.9496899  60.8589472  16.4090863   3.7824343  56.7764643  17.6790501
   4.4804508  56.9552771  18.1711964   4.0976676  56.2534982  17.0560890
   3.9319680  56.7258415  17.6592511   1.4383921  61.7579100  24.8689118
   2.0832924  61.2651543  24.5500066   1.6785698  61.9003887  25.6955196
   1.5694507  61.7056542  24.9438651   1.9551207  52.1457040  21.7611775
   1.6254537  52.5968183  21.0915474   1.2796208  52.0673203  22.3084782
   1.8061643  52.2008175  21.7434999   9.1627614  48.1342563  20.0061386
   8.8481055  48.8246041  20.4381808   8.6454556  48.0787345  19.3046887
   9.0392085  48.2277451  19.9658335   8.5040048  58.1347064  16.1198797
   7.9751520  58.3506697  16.7796103   9.0265068  58.8283202  16.0399766
   8.5028501  58.2690200  16.2054396  13.9588101  63.7093368  21.4931841
  13.1285804  63.9204012  21.6565258  13.9097353  62.8830423  21.2174125
  13.8294837  63.6182974  21.4769207  13.4542059  56.3563769  25.2882263
  12.6170481  56.4265956  25.5229857  13.4230290  56.3588264  24.4156565
  13.3260342  56.3673996  25.1941810   4.1963945  49.6166058  16.9761860
   4.9250105  49.4382013  16.5300016   4.2858837  50.4584138  17.1869038
   4.3170607  49.7149936  16.9415378   8.1772245  60.5519445  20.8794154
   8.9329760  60.9850960  20.9183063   8.2834570  59.9024215  21.4528790
   8.3042416  60.5196929  20.9692180  11.2152416  64.3792722  21.6296557
  10.7787648  64.3829465  22.3855528  10.8815332  65.0598221  21.1976134
  11.1015036  64.4805178  21.6777390  11.1349899  51.4206550  23.8725985
  11.7775808  51.4904655  24.4587900  11.3872920  50.7535773  23.3705527
  11.2672031  51.3332899  23.8853264  14.3496763  61.0973642  20.5216194
  15.0113197  60.5364311  20.4212103  13.7088175  60.6025673  20.8468885
  14.3525630  60.9410051  20.5548534  10.6361593  62.1139025  20.2628183
  10.8717182  62.2584224  19.4355034  10.7851157  62.8781433  20.6559697
  10.6927397  62.2478079  20.1991787  12.4652050  60.9540691  18.0997787
  12.7960267  61.4868331  17.4937882  13.0385138  61.0079578  18.7559738
  12.5985729  61.0410260  18.1075568   5.0052620  62.0771602  34.4926351
   4.2125601  62.3915114  34.6778971   5.1201547  62.2923071  33.6547136
   4.9048031  62.1555439  34.3964686   7.6783939  58.8005593  18.7821367
   7.7730794  59.5394887  19.2360992   7.0542783  58.3723069  19.2155931
   7.5992969  58.8466914  18.9129514   5.9336413  61.9791806  29.4311648
   6.5075275  61.3419050  29.5860212   5.8551217  61.9795888  28.5621305
   6.0069648  61.8856917  29.3258059   1.2900132  60.4115071  21.4832845
   1.0319376  59.5786806  21.4564145   1.3448614  60.6372684  20.6425346
   1.2599909  60.3212842  21.3552982   6.3701182  52.5143522  21.5836938
   5.6657508  52.0252707  21.7420857   6.4186156  52.5265996  20.7125382
   6.2731233  52.4433170  21.4776278   3.9308132  56.4376183  26.8290118
   3.5422565  56.0130401  26.1742310   3.2662831  56.6858333  27.3367145
   3.7755060  56.4114904  26.8077986  13.5731402  56.1951188  19.6037948
  13.3167966  55.3831129  19.4135831  14.4160715  56.2028755  19.3768136
  13.6597427  56.0763185  19.5422766   7.7534494  50.1350812  24.3414103
   8.1345006  49.4528983  24.7281977   6.9497778  49.8460414  24.1589767
   7.6910956  49.9917860  24.3718159  11.2556561  63.3500784  29.4396501
  11.0195198  62.5188848  29.3208562  11.8999790  63.2986391  30.0251345
  11.3151232  63.2198472  29.5082395   1.7126334  52.6405010  34.2076711
   1.3979775  53.4104573  33.9446274   1.3916267  52.0775266  33.6228938
   1.6185253  52.6715279  34.0818061  12.2792981  63.1345232  25.5024796
  11.9738798  63.8673289  25.8638111  11.5599197  62.7283162  25.2217582
  12.1280324  63.1826965  25.5137933  17.9794774  59.7738233  24.8293140
  17.9119274  59.7934192  23.9595726  17.9650436  60.6168560  25.0548810
  17.9673530  59.9011968  24.7345617   8.3891120  51.1773391  28.1534229
   9.1344712  50.9883201  27.7397655   7.9728425  51.7031629  27.5948086
   8.4376094  51.2275536  28.0098802  15.7653391  58.5482619  23.1039734
  16.3161312  57.9150688  23.3436826  15.7497506  59.0798012  23.7955238
  15.8438587  58.5331567  23.2418592   9.4681797  56.7878953  22.2144330
   9.1246563  56.0669288  22.5651580   9.5674840  56.5792804  21.3722689
   9.4323840  56.6503156  22.1416010   9.9294826  63.2504657  17.7568318
  10.4952859  63.9097867  17.6726861   9.2822730  63.5954355  18.2284721
   9.9173583  63.3986598  17.8141075   1.3442840  55.2402261  32.9461926
   0.5342615  55.5460041  32.8351768   1.8217526  55.9607843  33.0614510
   1.2946319  55.3916862  32.9468997   7.9872763  54.7070538  24.0903873
   7.1483863  54.7331817  23.8542137   8.0577130  55.3541273  24.6709220
   7.8741156  54.8066663  24.1412990   6.4342041  51.6055915  18.8231489
   7.1368394  51.4063663  18.3451447   6.1686230  50.8331857  19.1300333
   6.4988673  51.4618881  18.7976931  11.8630286  59.9138524  21.3765115
  11.7764261  60.0693950  22.2299894  11.4080766  60.5576600  21.0024520
  11.7833543  60.0314280  21.4472222   1.1970597  52.8691200  27.8762370
   1.0053794  52.8846334  28.7261793   2.0469193  53.0654874  27.8529025
   1.2946319  52.9005551  27.9985665   5.7356102  57.2349272  19.9990674
   5.4890817  57.1545022  20.8327463   6.0641225  56.4502739  19.8053202
   5.7477346  57.1075537  20.0938198   9.6304151  63.9432631  23.7877456
   9.4918511  64.6413677  24.2926198   8.8504149  63.7881287  23.4313638
   9.4947378  64.0232798  23.8103730   7.9682236  60.2429006  30.0399837
   7.9630275  59.3708823  30.0442264   8.6743230  60.4417175  29.5669293
   8.0727240  60.1432880  29.9706873   1.6953130  59.9705990  29.4113658
   1.8396505  60.5507198  28.7756768   2.0428778  60.3482287  30.1163512
   1.7680591  60.1126694  29.4212653   3.8673047  59.1696158  27.1938789
   3.1196361  59.3627173  26.7887067   4.0214572  58.3441378  26.9562910
   3.7795475  59.0761270  27.0984195   4.1074824  53.0646709  28.0834193
   4.5647438  53.7970684  28.2106985   4.1831153  52.6413174  28.8421449
   4.1865794  53.1103947  28.2135269   8.5802150  46.2436584  21.9528036
   8.6985718  46.7013048  21.2195339   8.4064326  45.4381846  21.6664253
   8.5721321  46.1930357  21.8028969   1.9857202  55.0548813  24.9276017
   1.1953277  54.8740273  25.2493353   2.3817825  54.2775766  24.9106311
   1.9274078  54.9136274  24.9728565   7.3700888  62.6891243  22.6535463
   6.6945890  62.4576476  23.1548850   7.3793264  62.0812426  22.0277568
   7.2719393  62.5650169  22.6351615   4.4995032  57.5309072  29.4099516
   4.4354174  58.3919029  29.2819653   4.6392220  57.2141065  28.6095067
   4.5110502  57.6109239  29.2727729   3.1814126  60.2241212  23.5515719
   2.7576375  60.4245711  22.8154737   3.0058981  59.3770060  23.6640019
   3.0925007  60.1289993  23.4589409   5.0075716  60.0951147  17.8537054
   5.5491261  59.5921528  18.3175675   5.3222275  60.0416341  17.0426540
   5.1340113  60.0130568  17.8020867   8.8792823  64.3053794  34.9663967
   9.6927688  64.0338943  35.1269099   8.7187790  64.0061334  34.1624163
   8.9762772  64.2208720  34.8709373   6.1564985  54.9887451  27.9059355
   6.3706955  54.3498365  27.3522709   5.5398884  55.4333275  27.4767217
   6.0970314  54.9597595  27.7609786   8.3204073  56.5976516  28.8442662
   7.5080755  56.2902407  28.9255835   8.7794008  56.1175516  29.4085374
   8.2684458  56.4813009  28.9397256   5.5479714  48.0987387  22.8946698
   4.6773272  48.0726108  22.8480007   5.8020055  47.9264579  22.0772543
   5.4573274  48.0697531  22.7666834   5.4157581  58.0036588  33.6271364
   5.8857212  58.6278704  34.0139238   5.4619461  57.3353563  34.1864579
   5.4925457  57.9971268  33.7671436   2.5728854  50.1093615  24.3520168
   2.0567343  49.4173807  24.4771747   2.0122783  50.7764392  24.2982767
   2.4135368  50.1056873  24.3626234   4.6421088  50.6486575  26.1813021
   4.2552841  50.6735607  26.9626551   4.1554025  50.0828254  25.7287537
   4.5133597  50.5682326  26.2300924  10.6171067  57.2149230  24.8052723
  10.1898675  57.1275579  24.0500822   9.9797120  57.3227006  25.3907567
  10.4600675  57.2181890  24.7798164   4.3078229  47.5353561  28.4723281
   4.9371347  48.0713861  28.1944351   4.4764092  47.4430920  29.3236846
   4.4256024  47.6014923  28.5571809   4.1092144  52.3224755  30.7449692
   4.9365574  52.0509904  30.8008307   4.1299990  53.1185597  31.1013510
   4.2344994  52.4004510  30.8064875   7.8002148  50.0689449  21.4408582
   8.0051741  50.0011757  22.2865580   7.4728572  50.8748270  21.3729760
   7.7817396  50.1775390  21.5568238   2.4978299  57.3970017  23.1817550
   2.1941437  56.8426006  23.7827958   1.7957720  57.5762227  22.6945585
   2.3494509  57.3414800  23.1987256   1.5544396  54.7070537  17.7462252
   1.8304130  53.9889450  17.3339820   2.1543065  55.3055457  17.5383358
   1.6837661  54.6890908  17.6543013  11.0535836  50.6221214  20.9211348
  10.4410149  51.1091616  21.3065080  11.1500011  49.9464704  21.4648999
  10.9773733  50.5939522  21.0590206   5.0554917  52.3784055  16.0208847
   5.5098663  52.5494615  16.7456692   5.5294962  51.7652165  15.6206623
   5.1923237  52.3134940  16.0682609  14.6960864  61.6938150  26.3488864
  14.7543987  62.1424799  27.0948841  14.0627331  62.1036963  25.9118944
  14.6112159  61.8211885  26.3941412   4.3147512  50.8776848  22.1585716
   3.4683557  51.0499656  22.0327066   4.3118645  50.0726192  22.4951544
   4.1894662  50.7837877  22.1896843   5.3845813  54.6552062  23.0247774
   4.9105767  54.1293824  23.5353085   5.7563948  54.1081535  22.4562635
   5.3695701  54.4968059  23.0162921  11.6482543  59.7154438  24.4354554
  11.4080766  58.8760853  24.4396981  12.1274550  59.7954605  25.1595328
  11.6834727  59.6035838  24.5429357   7.3129312  55.5488617  16.0873528
   6.7852331  55.6317361  15.3979236   7.7725020  56.2906488  16.0838172
   7.3031163  55.6709279  15.9848223  13.6487730  56.4955895  22.3883813
  13.4097500  56.4551729  21.5504598  13.8121631  57.3427047  22.5149535
  13.6378034  56.6147980  22.2837295  10.2533760  60.8805844  28.3188859
  10.9767959  60.4278371  28.1399878   9.9883723  61.1610510  27.5361186
  10.3215034  60.8556813  28.1767574   6.0352550  60.9789723  26.4683874
   5.4209543  60.4347773  26.7632509   6.5519835  60.4653959  25.9889690
   6.0208212  60.8226132  26.4408102   5.2748847  62.0493993  24.2028172
   4.8476455  61.4243711  23.7693608   5.2673791  61.7668915  25.0287179
   5.2107988  61.9146773  24.2608000   6.3331677  49.2520401  27.8267396
   5.8372238  49.4484076  27.1358962   7.0900739  49.6513070  27.6556197
   6.3718502  49.3398135  27.6987532   3.6034557  52.9262747  24.4170706
   3.6277044  52.3922860  23.7283486   3.8546030  52.4180056  25.0796297
   3.6444475  52.7723651  24.4135351   2.0665492  61.2194305  31.8996745
   1.2161122  61.3566020  32.0354390   2.2293619  60.4858084  32.3444447
   1.9649355  61.1308407  31.9852344   1.3050242  58.1694075  26.0950350
   0.4742172  58.3367893  25.8885598   1.2501759  57.7930026  26.8799235
   1.1739657  58.1383807  26.1798878  12.6869074  59.8432255  26.8219408
  13.2786914  60.4829506  26.8537606  13.1228069  59.1455292  27.1111475
  12.8387505  59.8350606  26.8700241   6.6824646  52.6302947  26.2901965
   7.1079718  52.1775474  25.6785492   6.0681639  52.0763018  26.5666753
   6.6553292  52.4816923  26.2406990   5.1218869  49.1018047  19.6992542
   4.4787187  48.9515693  20.2677681   4.7818276  48.8560392  18.9341647
   4.9763946  49.0430170  19.6695557   9.7118216  57.0577474  19.1222551
   9.0409405  57.6007176  18.9935616  10.4057966  57.5272329  18.8804246
   9.7147083  57.2075745  19.0678079   9.8746343  53.5133358  22.0312924
  10.2273953  53.0863080  22.7058723   9.0161145  53.4284201  22.1614000
   9.7995788  53.4378098  22.1507934   7.8729609  56.7768726  25.9797766
   7.8527536  56.5952021  26.8332545   7.9208810  57.6480745  25.9557350
   7.8764250  56.8785264  26.1021061   5.8175939  63.3655918  31.9046243
   5.7771794  62.7205595  31.3191399   6.6299257  63.3092535  32.2171655
   5.9319092  63.2614885  31.8643192  11.3070403  48.6351769  22.9597237
  10.8001268  47.9280909  22.8918414  12.1037837  48.3044958  23.0898313
  11.3497642  48.4824921  22.9696231   7.2234419  55.1418382  18.8570900
   6.9948112  55.1651083  18.0149258   7.4832495  54.3175849  18.9765911
   7.2280607  55.0234462  18.7496098   1.5053647  56.9952855  28.4596000
   0.9932550  56.3874038  28.8181032   1.3333144  57.7109447  28.9269976
   1.4043284  57.0116154  28.5812224  13.5090543  63.1516696  15.9438101
  13.8924149  63.9008052  16.1736198  12.7134656  63.3982516  15.6850090
  13.4484325  63.2986390  15.9395675   5.3822718  54.9177099  30.8998256
   5.9394148  54.6890909  30.2676721   5.0583783  55.6782765  30.6233468
   5.4169128  54.9960936  30.7654753   3.1005835  58.0044753  31.8650263
   3.8517162  58.3196429  32.1789817   3.2928412  57.8023924  31.0384185
   3.2397249  58.0212134  31.7893659   9.9491125  54.1318319  19.1074059
   9.9485352  53.9766975  19.9658335   9.7447305  54.9781306  19.0515444
   9.9190903  54.2338940  19.2261998   7.6731977  58.8115821  22.7610265
   8.1685643  58.0938816  22.7214286   6.8631753  58.5086618  22.6464752
   7.6275871  58.6613467  22.7383991   9.7383796  61.5619508  25.4487394
  10.1638868  61.0393930  24.8957819   9.3740716  62.1600346  24.9276017
   9.7470399  61.5729735  25.2896404   3.2431890  50.0481243  28.7346646
   3.3759796  49.2512236  29.0627622   3.6277043  50.5747646  29.3144922
   3.3188219  50.0081160  28.8690149   6.3164246  46.9711569  25.3327740
   5.5110209  46.8609299  25.6495578   6.1870981  47.0724025  24.4757606
   6.1784379  46.9695239  25.2535780   9.7730206  53.1357061  25.9267437
   9.1893195  53.6366268  25.5145004  10.0934500  52.6286617  25.2931760
   9.7343382  53.1348896  25.7725944   2.3125005  52.0497656  16.2026111
   3.1340700  52.2195969  15.9607806   1.8494656  52.2044917  15.4792409
   2.3656168  52.0979389  16.0597756   0.9020337  50.0440418  26.9824540
   1.4464750  49.7031545  27.5728882   0.9557273  50.9025880  27.1245825
   0.9909457  50.1195677  27.0906414  20.1360198  63.6527871  20.0061386
  19.8213639  64.3431349  20.4381808  19.6187140  63.5972653  19.3046887
  20.0124668  63.7462759  19.9658335  15.1696528  65.1351366  16.9761860
  15.8982689  64.9567321  16.5300016  15.2591421  65.9769446  17.1869038
  15.2903190  65.2335244  16.9415378  22.1082483  66.9391858  23.8725985
  22.7508391  67.0089963  24.4587900  22.3605504  66.2721081  23.3705527
  22.2404615  66.8518207  23.8853264  18.7267078  65.6536120  24.3414103
  19.1077589  64.9714291  24.7281977  17.9230362  65.3645722  24.1589767
  18.6643539  65.5103168  24.3718159  19.3623704  66.6958699  28.1534229
  20.1077296  66.5068509  27.7397655  18.9461008  67.2216937  27.5948086
  19.4108678  66.7460844  28.0098802  17.4074624  67.1241223  18.8231489
  18.1100977  66.9248971  18.3451447  17.1418813  66.3517165  19.1300333
  17.4721257  66.9804189  18.7976931  19.5534734  61.7621892  21.9528036
  19.6718302  62.2198356  21.2195339  19.3796909  60.9567154  21.6664253
  19.5453905  61.7115664  21.8028969  16.5212297  63.6172695  22.8946698
  15.6505855  63.5911416  22.8480007  16.7752639  63.4449887  22.0772543
  16.4305857  63.5882838  22.7666834  15.6153671  66.1671883  26.1813021
  15.2285424  66.1920915  26.9626551  15.1286609  65.6013562  25.7287537
  15.4866180  66.0867634  26.2300924  15.2810813  63.0538869  28.4723281
  15.9103931  63.5899169  28.1944351  15.4496676  62.9616228  29.3236846
  15.3988608  63.1200231  28.5571809  18.7734732  65.5874757  21.4408582
  18.9784325  65.5197065  22.2865580  18.4461155  66.3933578  21.3729760
  18.7549979  65.6960698  21.5568238  22.0268419  66.1406521  20.9211348
  21.4142733  66.6276924  21.3065080  22.1232594  65.4650012  21.4648999
  21.9506317  66.1124830  21.0590206  15.2880096  66.3962156  22.1585716
  14.4416141  66.5684964  22.0327066  15.2851228  65.5911500  22.4951544
  15.1627246  66.3023185  22.1896843  17.3064261  64.7705709  27.8267396
  16.8104822  64.9669383  27.1358962  18.0633323  65.1698378  27.6556197
  17.3451085  64.8583443  27.6987532  16.0951453  64.6203355  19.6992542
  15.4519771  64.4701001  20.2677681  15.7550860  64.3745700  18.9341647
  15.9496530  64.5615477  19.6695557  22.2802987  64.1537077  22.9597237
  21.7733851  63.4466217  22.8918414  23.0770420  63.8230266  23.0898313
  22.3230226  64.0010229  22.9696231  14.2164474  65.5666551  28.7346646
  14.3492380  64.7697544  29.0627622  14.6009627  66.0932954  29.3144922
  14.2920803  65.5266468  28.8690149  17.2896829  62.4896877  25.3327740
  16.4842793  62.3794607  25.6495578  17.1603565  62.5909333  24.4757606
  17.1516962  62.4880547  25.2535780  11.7226559  35.1480454   4.9708509
  11.6920563  36.0025091   5.1426778  12.3207908  34.8475747   5.5294652
  11.8063717  35.2296951   5.0783311   4.9226244  34.2356105   9.7261439
   4.0664139  34.3964604   9.7770556   4.9693897  33.3648169   9.7466500
   4.8025355  34.1306907   9.7367505   8.2319960  40.5042631  19.3321895
   8.9386728  40.0094662  19.4608830   8.4207896  40.9451712  18.6024553
   8.3647866  40.4960981  19.2430941   7.7678065  36.2948149  12.3693091
   8.3134025  36.9733236  12.4287060   7.7094941  36.1535610  11.5094672
   7.8393979  36.3740151  12.2505151   9.5443133  37.7232756   3.2426819
   9.4282659  38.4740442   3.6718957  10.3399020  37.4656710   3.4922906
   9.6447723  37.7967603   3.3430910   1.1334745  38.6957231  11.8029165
   1.7783748  38.2029674  11.4840113   1.3736522  38.8382018  12.6295243
   1.2645330  38.6434673  11.8778698   3.6720837  41.5412137  11.4536057
   3.9544080  40.7463543  11.2322813   4.4006997  42.0192724  11.4741118
   3.8210400  41.4946734  11.4239072  13.6538925  40.6471499   8.4271888
  12.8236628  40.8582143   8.5905305  13.6048177  39.8208554   8.1514172
  13.5245660  40.5561106   8.4109253   1.7148663  43.4775353  11.2619797
   1.1975604  43.1182768  10.6581106   2.4123054  42.9537528  11.2725864
   1.7414244  43.3473041  11.1750056   5.3712255  43.9270167  17.2235971
   5.4595600  43.7396308  18.0714181   5.8001967  43.2807597  16.8240817
   5.4474357  43.8033175  17.2907722   2.9382714  43.2101327  16.2053633
   2.3753549  42.7973937  16.7293294   3.7003738  43.1354233  16.6246776
   2.9677163  43.1378728  16.3446633  13.1492883  33.2941900  12.2222309
  12.3121304  33.3644087  12.4569904  13.1181114  33.2966395  11.3496612
  13.0211166  33.3052127  12.1281857   7.8723069  37.4897576   7.8134201
   8.6280584  37.9229091   7.8523110   7.9785394  36.8402346   8.3868837
   7.9993240  37.4575060   7.9032226  10.9103240  41.3170854   8.5636604
  10.4738472  41.3207596   9.3195575  10.5766156  41.9976353   8.1316181
  10.7965860  41.4183309   8.6117436   5.4832314  43.3579186  19.8879754
   6.2672731  43.4710034  20.2535496   5.2828908  42.5320324  20.0838440
   5.5698339  43.2525906  19.9714140  10.8300723  28.3584681  10.8066032
  11.4726632  28.4282786  11.3927947  11.0823744  27.6913904  10.3045574
  10.9622855  28.2711030  10.8193311   5.6402707  45.2689288  13.5346210
   4.8417953  45.0288789  13.7920078   6.0888719  45.3203681  14.2813257
   5.5877318  45.2411680  13.6831134  14.0447586  38.0351774   7.4556241
  14.7064021  37.4742442   7.3552149  13.4038998  37.5403804   7.7808932
  14.0476454  37.8788183   7.4888581  10.3312417  39.0517156   7.1968230
  10.5668006  39.1962355   6.3695080  10.4801981  39.8159564   7.5899743
  10.3878220  39.1856210   7.1331834  12.1602874  37.8918822   5.0337834
  12.4911091  38.4246462   4.4277928  12.7335962  37.9457710   5.6899785
  12.2936553  37.9788391   5.0415615   4.7003444  39.0149733  21.4266398
   3.9076425  39.3293245  21.6119018   4.8152371  39.2301202  20.5887182
   4.5998855  39.0933570  21.3304733   7.3734763  35.7383725   5.7161414
   7.4681617  36.4773019   6.1701039   6.7493607  35.3101200   6.1495978
   7.2943793  35.7845045   5.8469561   5.6287237  38.9169937  16.3651695
   6.2026099  38.2797181  16.5200258   5.5502041  38.9174020  15.4961352
   5.7020472  38.8235049  16.2598105   0.9850956  37.3493202   8.4172892
   0.7270200  36.5164937   8.3904191   1.0399438  37.5750815   7.5765392
   0.9550733  37.2590974   8.2893029   3.6258956  33.3754314  13.7630165
   3.2373389  32.9508532  13.1082356   2.9613655  33.6236464  14.2707192
   3.4705884  33.3493035  13.7418033  13.2682225  33.1329319   6.5377995
  13.0118790  32.3209260   6.3475878  14.1111539  33.1406886   6.3108183
  13.3548251  33.0141316   6.4762812   7.4485318  27.0728943  11.2754149
   7.8295830  26.3907114  11.6622024   6.6448602  26.7838545  11.0929814
   7.3861780  26.9295991  11.3058205  10.9507385  40.2878915  16.3736548
  10.7146022  39.4566980  16.2548608  11.5950614  40.2364522  16.9591392
  11.0102055  40.1576603  16.4422441   1.4077158  29.5783141  21.1416758
   1.0930599  30.3482704  20.8786321   1.0867091  29.0153397  20.5568985
   1.3136077  29.6093410  21.0158108  11.9743805  40.0723364  12.4364842
  11.6689622  40.8051420  12.7978158  11.2550021  39.6661293  12.1557628
  11.8231148  40.1205097  12.4477979   2.9827275  41.5546859   8.7673070
   3.0566283  41.3922031   9.6214920   3.7996781  41.7437048   8.5233552
   3.1143633  41.5583601   8.8571096  17.6745598  36.7116364  11.7633187
  17.6070098  36.7312323  10.8935773  17.6601260  37.5546691  11.9888857
  17.6624354  36.8390099  11.6685663   8.0841944  28.1151522  15.0874276
   8.8295536  27.9261332  14.6737701   7.6679249  28.6409760  14.5288132
   8.1326918  28.1653667  14.9438849  15.4604215  35.4860750  10.0379781
  16.0112136  34.8528819  10.2776873  15.4448330  36.0176143  10.7295285
  15.5389411  35.4709699  10.1758639   2.1126606  39.3199348  14.5839674
   1.6138299  40.0315115  14.6624563   2.9226830  39.6400014  14.5457837
   2.1582712  39.4726196  14.5896243   9.1632621  33.7257084   9.1484377
   8.8197387  33.0047419   9.4991627   9.2625664  33.5170935   8.3062735
   9.1274664  33.5881287   9.0756057   9.6245650  40.1882788   4.6908365
  10.1903683  40.8475998   4.6066908   8.9773554  40.5332486   5.1624767
   9.6124407  40.3364729   4.7481122   7.6823586  31.6448669  11.0243920
   6.8434687  31.6709948  10.7882183   7.7527954  32.2919404  11.6049267
   7.5691980  31.7444795  11.0753037  11.5581110  36.8516656   8.3105162
  11.4715085  37.0072082   9.1639941  11.1031590  37.4954731   7.9364567
  11.4784367  36.9692411   8.3812269   0.8921421  29.8069331  14.8102417
   0.7004618  29.8224465  15.6601840   1.7420017  30.0033005  14.7869071
   0.9897143  29.8383682  14.9325711   5.4306926  34.1727403   6.9330721
   5.1841641  34.0923154   7.7667510   5.7592049  33.3880871   6.7393249
   5.4428170  34.0453668   7.0278244   9.3254975  40.8810762  10.7217503
   9.1869334  41.5791808  11.2266245   8.5454973  40.7259419  10.3653684
   9.1898202  40.9610929  10.7443777   7.6633060  37.1807137  16.9739884
   7.6581099  36.3086954  16.9782311   8.3694054  37.3795307  16.5009340
   7.7678064  37.0811012  16.9046920   1.3903954  36.9084121  16.3453704
   1.5347329  37.4885329  15.7096814   1.7379602  37.2860418  17.0503559
   1.4631415  37.0504825  16.3552699   3.5623871  36.1074290  14.1278836
   2.8147185  36.3005304  13.7227114   3.7165396  35.2819509  13.8902957
   3.4746299  36.0139401  14.0324242   0.4631709  45.0986893  13.2114731
   0.6121272  44.5389809  12.5588136   1.2431711  45.1778895  13.5947250
   0.6005802  45.0272459  13.1711680   2.9885009  45.2701536  14.4899222
   2.9128680  44.6010347  15.0450010   2.9174868  45.9719324  15.0039888
   2.9665616  45.2746443  14.6476070   3.8025648  30.0024840  15.0174240
   4.2598262  30.7348815  15.1447032   3.8781977  29.5791306  15.7761496
   3.8816618  30.0482078  15.1475316   1.6808026  31.9926944  11.8616064
   0.8904101  31.8118404  12.1833400   2.0768649  31.2153897  11.8446358
   1.6224902  31.8514405  11.9068612   7.0651712  39.6269374   9.5875510
   6.3896714  39.3954607  10.0888897   7.0744088  39.0190557   8.9617615
   6.9670217  39.5028300   9.5691662   4.1945856  34.4687203  16.3439563
   4.1304997  35.3297160  16.2159699   4.3343044  34.1519197  15.5435114
   4.2061326  34.5487370  16.2067776   2.8764950  37.1619343  10.4855766
   2.4527199  37.3623842   9.7494784   2.7009805  36.3148191  10.5980065
   2.7875831  37.0668124  10.3929456   2.3776644  48.6769856  12.9477223
   2.8672574  47.9780645  12.7652887   1.8060876  48.3793726  13.5353280
   2.3661174  48.5296079  13.0078264   8.5743647  41.2431925  21.9004014
   9.3878512  40.9717074  22.0609146   8.4138613  40.9439465  21.0964209
   8.6713596  41.1586851  21.8049419   5.8515809  31.9265582  14.8399402
   6.0657779  31.2876497  14.2862756   5.2349708  32.3711406  14.4107264
   5.7921138  31.8975726  14.6949833   8.0154897  33.5354647  15.7782709
   7.2031579  33.2280538  15.8595882   8.4744832  33.0553648  16.3425421
   7.9635282  33.4191140  15.8737303   7.4260152  41.4134319   6.2259653
   7.0674807  41.5848962   7.0023686   6.9398863  41.8747525   5.6687652
   7.3018849  41.5073291   6.2584922   5.1108405  34.9414719  20.5611411
   5.5808036  35.5656835  20.9479285   5.1570285  34.2731694  21.1204626
   5.1876280  34.9349399  20.7011483   4.3371912  27.5864706  13.1153068
   3.9503665  27.6113738  13.8966597   3.8504849  27.0206385  12.6627584
   4.2084421  27.5060457  13.1640971   8.5864891  42.3038215  17.1726854
   9.2244612  41.8098411  16.8389310   7.9438983  42.2315616  16.5879081
   8.5859118  42.2197224  17.0369209  10.3121891  34.1527361  11.7392770
   9.8849499  34.0653710  10.9840869   9.6747944  34.2605137  12.3247614
  10.1551498  34.1560021  11.7138211   4.0029053  24.4731692  15.4063327
   4.6322171  25.0091992  15.1284398   4.1714916  24.3809051  16.2576893
   4.1206848  24.5393054  15.4911856   3.8042968  29.2602887  17.6789739
   4.6316398  28.9888036  17.7348353   3.8250814  30.0563728  18.0353557
   3.9295818  29.3382641  17.7404922   8.6419148  42.9958024  13.8132211
   9.4311526  42.6447088  13.9334292   8.8162746  43.8094412  13.5508845
   8.7839429  43.0643881  13.7920079   2.1929123  34.3348149  10.1157597
   1.8892261  33.7804137  10.7168005   1.4908544  34.5140359   9.6285631
   2.0445333  34.2792931  10.1327303  14.3911688  38.6316281  13.2828911
  14.4494811  39.0802930  14.0288887  13.7578155  39.0415094  12.8458991
  14.3062983  38.7590016  13.3281459   8.0310782  44.2519823   9.7183657
   7.8330471  44.7410638   9.0239868   7.4098493  44.4561065  10.2967790
   7.9098347  44.3536362   9.7006880   5.0796636  31.5930193   9.9587821
   4.6056591  31.0671955  10.4693132   5.4514772  31.0459666   9.3902682
   5.0646525  31.4346190   9.9502968  11.3433367  36.6532569  11.3694601
  11.1031590  35.8138984  11.3737028  11.8225374  36.7332736  12.0935375
  11.3785551  36.5413969  11.4769403  13.3438554  33.4334026   9.3223860
  13.1048324  33.3929860   8.4844645  13.5072455  34.2805178   9.4489581
  13.3328858  33.5526111   9.2177342   9.9484584  37.8183976  15.2528905
  10.6718783  37.3656502  15.0739925   9.6834546  38.0988641  14.4701233
  10.0165857  37.7934944  15.1107621   5.7303374  37.9167854  13.4023920
   5.1160367  37.3725904  13.6972556   6.2470659  37.4032090  12.9229737
   5.7159036  37.7604263  13.3748149   4.9699671  38.9872124  11.1368219
   4.5427279  38.3621843  10.7033655   4.9624615  38.7047046  11.9627226
   4.9058812  38.8524905  11.1948047   6.0282501  26.1898533  14.7607443
   5.5323062  26.3862207  14.0699009   6.7851563  26.5891201  14.5896244
   6.0669326  26.2776266  14.6327579   3.2985381  29.8640878  11.3510753
   3.3227868  29.3300991  10.6623533   3.5496854  29.3558187  12.0136344
   3.3395299  29.7101782  11.3475398   1.7616316  38.1572437  18.8336792
   0.9111946  38.2944151  18.9694437   1.9244443  37.4236215  19.2784494
   1.6600179  38.0686538  18.9192391  12.3819898  36.7810386  13.7559455
  12.9737738  37.4207637  13.7877653  12.8178893  36.0833423  14.0451522
  12.5338329  36.7728737  13.8040288   4.2113288  41.2027759  14.3817349
   3.7038379  41.7563606  14.8257980   3.9139934  41.2636049  13.5636124
   4.0918173  41.2934070  14.3265806   6.3775470  29.5681078  13.2242012
   6.8030542  29.1153605  12.6125538   5.7632463  29.0141149  13.5006800
   6.3504116  29.4195055  13.1747037   9.4069040  33.9955605   6.0562598
   8.7360229  34.5385307   5.9275663  10.1008790  34.4650460   5.8144292
   9.4097907  34.1453876   6.0018125   3.4555773  46.1352317  11.2874356
   3.2321428  45.3771146  11.6558382   2.9665617  46.1650338  10.5654796
   3.3499222  46.0274542  11.2351097   9.5697167  30.4511489   8.9652971
   9.9224777  30.0241212   9.6398770   8.7111968  30.3662332   9.0954047
   9.4946612  30.3756229   9.0847981   7.5680433  33.7146857  12.9137813
   7.5478360  33.5330152  13.7672592   7.6159634  34.5858876  12.8897397
   7.5715074  33.8163396  13.0361108   5.5126763  40.3034049  18.8386290
   5.4722618  39.6583726  18.2531446   6.3250081  40.2470667  19.1511702
   5.6269916  40.1993016  18.7983239   5.4699524  45.5142860   9.4935057
   5.0715808  45.6245131   8.7255877   4.8550744  45.7224927  10.0761617
   5.3198414  45.5616428   9.4666357  11.0021227  25.5729901   9.8937283
  10.4952092  24.8659040   9.8258461  11.7988661  25.2423089  10.0238360
  11.0448466  25.4203052   9.9036278   1.2004471  33.9330986  15.3936047
   0.6883374  33.3252169  15.7521079   1.0283968  34.6487578  15.8610023
   1.0994108  33.9494285  15.5152271  13.2041367  40.0894827   2.8778148
  13.5874973  40.8386183   3.1076245  12.4085480  40.3360647   2.6190137
  13.1435149  40.2364521   2.8735721   5.0773542  31.8555230  17.8338303
   5.6344972  31.6269040  17.2016768   4.7534607  32.6160896  17.5573515
   5.1119952  31.9339067  17.6994800   2.7956659  34.9422884  18.7990310
   3.5467986  35.2574561  19.1129864   2.9879235  34.7402055  17.9724232
   2.9348073  34.9590266  18.7233706   7.3682801  35.7493952   9.6950312
   7.8636466  35.0316947   9.6554333   6.5582577  35.4464750   9.5804799
   7.3226694  35.5991598   9.6724038   9.4334620  38.4997639  12.3827441
   9.8589692  37.9772061  11.8297866   9.0691540  39.0978477  11.8616064
   9.4421223  38.5107866  12.2236451   6.0213219  42.2131904   8.7128599
   6.4924398  42.9272166   8.8818584   6.3573398  41.6130654   9.2488468
   6.1408335  42.2303368   8.8160974   8.1090204  43.8233217  20.8920671
   8.2187170  43.0341778  21.2477418   8.4381101  43.7339153  20.0895009
   8.1742610  43.6939070  20.8263061   2.9382714  26.9859374  15.6686693
   3.0710620  26.1890368  15.9967669   3.3227867  27.5125777  16.2484969
   3.0139043  26.9459291  15.8030196   6.6587166  42.0049838  15.4756291
   6.1108112  41.3807721  15.2076356   7.1200195  42.1944110  14.7600371
   6.6454375  41.9408888  15.3306722   9.4681030  30.0735192  12.8607483
   8.8844019  30.5744399  12.4485051   9.7885324  29.5664748  12.2271807
   9.4294205  30.0727027  12.7065991   0.5971161  26.9818549  13.9164587
   1.1415574  26.6409676  14.5068929   0.6508097  27.8404011  14.0585872
   0.6860281  27.0573809  14.0246460   6.2245492  43.0100910  12.0065632
   7.0443866  42.8663877  12.2681928   5.9439570  43.6347109  12.5482070
   6.3042235  43.0811263  12.1253572  22.6959142  50.6665762   4.9708509
  22.6653147  51.5210399   5.1426778  23.2940491  50.3661055   5.5294652
  22.7796300  50.7482259   5.0783311  15.8958827  49.7541413   9.7261439
  15.0396723  49.9149911   9.7770556  15.9426481  48.8833477   9.7466500
  15.7757939  49.6492215   9.7367505  19.2052544  56.0227939  19.3321895
  19.9119311  55.5279970  19.4608830  19.3940479  56.4637020  18.6024553
  19.3380449  56.0146289  19.2430941  18.7410648  51.8133457  12.3693091
  19.2866608  52.4918544  12.4287060  18.6827525  51.6720918  11.5094672
  18.8126563  51.8925459  12.2505151  20.5175717  53.2418064   3.2426819
  20.4015243  53.9925750   3.6718957  21.3131604  52.9842018   3.4922906
  20.6180306  53.3152911   3.3430910   7.3539855  47.4928540  10.2798085
   6.7344887  46.9021188  10.1108099   7.2523719  48.0839976   9.6462408
   7.2477530  47.4932623  10.1603074  14.4507751  49.2328082   4.6130548
  15.1487915  49.4116210   5.1052011  14.7660083  48.7098422   3.9900937
  14.6003088  49.1821854   4.5932558   7.0808988  51.0380822  12.5241654
   6.9567685  51.6243268  13.1591472   7.7327272  50.5441018  12.8253929
   7.1582637  51.0519627  12.6627583  12.1067329  54.2142539  11.8029165
  12.7516331  53.7214982  11.4840113  12.3469106  54.3567326  12.6295243
  12.2377914  54.1619981  11.8778698  14.6453420  57.0597445  11.4536057
  14.9276663  56.2648851  11.2322813  15.3739581  57.5378032  11.4741118
  14.7942984  57.0132042  11.4239072  12.6234614  44.6020479   8.6951822
  12.2937944  45.0531622   8.0255521  11.9479616  44.5236642   9.2424829
  12.4745050  44.6571614   8.6775046  19.8311022  40.5906002   6.9401433
  19.5164463  41.2809480   7.3721855  19.3137964  40.5350784   6.2386934
  19.7075492  40.6840890   6.8998382  19.1723456  50.5910503   3.0538843
  18.6434927  50.8070136   3.7136150  19.6948476  51.2846641   2.9739813
  19.1711909  50.7253640   3.1394443  24.6271509  56.1656807   8.4271888
  23.7969212  56.3767451   8.5905305  24.5780761  55.3393862   8.1514172
  24.4978244  56.0746413   8.4109253  12.6881246  58.9960661  11.2619797
  12.1708188  58.6368076  10.6581106  13.3855637  58.4722836  11.2725864
  12.7146827  58.8658349  11.1750056  16.3444838  59.4455475  17.2235971
  16.4328184  59.2581616  18.0714181  16.7734551  58.7992905  16.8240817
  16.4206941  59.3218483  17.2907722  13.9115298  58.7286635  16.2053633
  13.3486133  58.3159245  16.7293294  14.6736321  58.6539541  16.6246776
  13.9409747  58.6564036  16.3446633  10.8290568  42.6632767   4.1774770
  11.5836536  43.0311084   3.9391820  10.6518103  43.0372322   4.9453950
  10.9145047  42.7730955   4.2559659  24.1225467  48.8127208  12.2222309
  23.2853888  48.8829395  12.4569904  24.0913698  48.8151703  11.3496612
  23.9943749  48.8237435  12.1281857  10.5190196  50.9560243  17.9370678
  10.6910700  50.8466138  18.7855959  11.0559554  51.6014649  17.7001870
  10.6235200  51.0352245  18.0275775   9.4214768  57.3291884  12.6189176
   9.9612993  57.1863015  13.2892549   8.7384714  57.7288634  12.9873203
   9.4006922  57.3671555  12.7723598  14.8647352  42.0729497   3.9101907
  15.5933513  41.8945452   3.4640063  14.9542245  42.9147577   4.1209085
  14.9854014  42.1713375   3.8755424  18.8455653  53.0082884   7.8134201
  19.6013168  53.4414399   7.8523110  18.9517977  52.3587654   8.3868837
  18.9725823  52.9760368   7.9032226  21.8835824  56.8356162   8.5636604
  21.4471056  56.8392904   9.3195575  21.5498739  57.5161661   8.1316181
  21.7698444  56.9368617   8.6117436  16.4564897  58.8764494  19.8879754
  17.2405314  58.9895342  20.2535496  16.2561492  58.0505631  20.0838440
  16.5430923  58.7711214  19.9714140  21.8033307  43.8769989  10.8066032
  22.4459215  43.9468094  11.3927947  22.0556327  43.2099212  10.3045574
  21.9355439  43.7896338  10.8193311   9.5750519  47.0870553  15.4190606
   8.8822316  46.6167532  15.6651337  10.1910847  46.8608857  15.9932313
   9.5635049  46.9837685  15.5399758  16.6135291  60.7874596  13.5346210
  15.8150537  60.5474096  13.7920078  17.0621302  60.8388989  14.2813257
  16.5609902  60.7596988  13.6831134  25.0180170  53.5537081   7.4556241
  25.6796604  52.9927750   7.3552149  24.3771582  53.0589112   7.7808932
  25.0209038  53.3973490   7.4888581  21.3045001  54.5702464   7.1968230
  21.5400590  54.7147663   6.3695080  21.4534564  55.3344872   7.5899743
  21.3610804  54.7041518   7.1331834   8.2991078  51.0535957  16.5617451
   9.0231051  51.0388987  17.0482346   8.4007215  51.7631312  16.0639419
   8.4209287  51.1560660  16.5596238  23.1335458  53.4104130   5.0337834
  23.4643675  53.9431770   4.4277928  23.7068546  53.4643018   5.6899785
  23.2669137  53.4973699   5.0415615  15.6736028  54.5335041  21.4266398
  14.8809008  54.8478553  21.6119018  15.7884955  54.7486510  20.5887182
  15.5731438  54.6118878  21.3304733  18.3467347  51.2569032   5.7161414
  18.4414201  51.9958327   6.1701039  17.7226190  50.8286508   6.1495978
  18.2676377  51.3030353   5.8469561  16.6019820  54.4355245  16.3651695
  17.1758682  53.7982489  16.5200258  16.5234624  54.4359328  15.4961352
  16.6753055  54.3420357  16.2598105  11.9583539  52.8678510   8.4172892
  11.7002783  52.0350245   8.3904191  12.0132022  53.0936123   7.5765392
  11.9283317  52.7776281   8.2893029  17.0384589  44.9706961   8.5176985
  16.3340916  44.4816146   8.6760904  17.0869564  44.9829435   7.6465429
  16.9414641  44.8996609   8.4116324  10.9318251  50.4216273   8.9037787
  10.3567843  50.5808441   9.5401748  10.5553928  49.7851682   8.4406237
  10.7921064  50.3514086   8.9292345  14.5991540  48.8939622  13.7630165
  14.2105973  48.4693840  13.1082356  13.9346238  49.1421772  14.2707192
  14.4438468  48.8678343  13.7418033  24.2414809  48.6514627   6.5377995
  23.9851374  47.8394568   6.3475878  25.0844123  48.6592194   6.3108183
  24.3280834  48.5326624   6.4762812  18.4217901  42.5914251  11.2754149
  18.8028413  41.9092422  11.6622024  17.6181186  42.3023853  11.0929814
  18.3594363  42.4481299  11.3058205  21.9239968  55.8064223  16.3736548
  21.6878606  54.9752287  16.2548608  22.5683197  55.7549830  16.9591392
  21.9834639  55.6761911  16.4422441  12.3809742  45.0968449  21.1416758
  12.0663183  45.8668012  20.8786321  12.0599674  44.5338705  20.5568985
  12.2868661  45.1278718  21.0158108  22.9476389  55.5908671  12.4364842
  22.6422206  56.3236728  12.7978158  22.2282605  55.1846601  12.1557628
  22.7963731  55.6390404  12.4477979  13.9559858  57.0732167   8.7673070
  14.0298867  56.9107339   9.6214920  14.7729365  57.2622356   8.5233552
  14.0876217  57.0768909   8.8571096  28.6478181  52.2301672  11.7633187
  28.5802681  52.2497631  10.8935773  28.6333843  53.0731999  11.9888857
  28.6356938  52.3575407  11.6685663   9.9341639  43.4858970   6.7562954
   9.0664064  43.5581570   6.8220563  10.2216843  44.2881049   6.9450929
   9.8481387  43.6153118   6.7937721  19.0574528  43.6336830  15.0874276
  19.8028120  43.4446640  14.6737701  18.6411832  44.1595068  14.5288132
  19.1059502  43.6838975  14.9438849  26.4336798  51.0046058  10.0379781
  26.9844720  50.3714127  10.2776873  26.4180914  51.5361451  10.7295285
  26.5121995  50.9895006  10.1758639  13.0859189  54.8384656  14.5839674
  12.5870883  55.5500423  14.6624563  13.8959414  55.1585322  14.5457837
  13.1315296  54.9911504  14.5896243  20.1365205  49.2442392   9.1484377
  19.7929971  48.5232727   9.4991627  20.2358247  49.0356243   8.3062735
  20.1007247  49.1066595   9.0756057  20.5978234  55.7068096   4.6908365
  21.1636266  56.3661306   4.6066908  19.9506137  56.0517794   5.1624767
  20.5856990  55.8550037   4.7481122  12.0126247  47.6965700  19.8801973
  11.2026023  48.0023480  19.7691815  12.4900934  48.4171282  19.9954557
  11.9629726  47.8480301  19.8809044  18.6556170  47.1633977  11.0243920
  17.8167271  47.1895256  10.7882183  18.7260537  47.8104712  11.6049267
  18.5424564  47.2630103  11.0753037   8.3470279  53.2328250  14.7501375
   8.8591376  53.5112504  14.1010135   8.0606622  53.9717544  15.1164188
   8.3805142  53.3830604  14.7091253  17.1025448  44.0619354   5.7571536
  17.8051801  43.8627102   5.2791494  16.8369637  43.2895296   6.0640379
  17.1672081  43.9182320   5.7316978  22.5313694  52.3701964   8.3105162
  22.4447668  52.5257390   9.1639941  22.0764174  53.0140039   7.9364567
  22.4516951  52.4877719   8.3812269  11.8654005  45.3254639  14.8102417
  11.6737202  45.3409773  15.6601840  12.7152601  45.5218313  14.7869071
  11.9629726  45.3568990  14.9325711   6.2500918  47.8545620  12.7886233
   6.1086409  47.0029561  12.9130741   6.5341481  47.8974281  11.9648439
   6.2708764  47.7345370  12.6853857  16.4039510  49.6912711   6.9330721
  16.1574224  49.6108462   7.7667510  16.7324633  48.9066178   6.7393249
  16.4160754  49.5638976   7.0278244  20.2987559  56.3996070  10.7217503
  20.1601918  57.0977116  11.2266245  19.5187557  56.2444726  10.3653684
  20.1630786  56.4796237  10.7443777  18.6365644  52.6992445  16.9739884
  18.6313682  51.8272262  16.9782311  19.3426638  52.8980614  16.5009340
  18.7410648  52.5996320  16.9046920  12.3636537  52.4269429  16.3453704
  12.5079913  53.0070637  15.7096814  12.7112186  52.8045726  17.0503559
  12.4363999  52.5690133  16.3552699  14.5356455  51.6259598  14.1278836
  13.7879769  51.8190612  13.7227114  14.6897980  50.8004817  13.8902957
  14.4478882  51.5324709  14.0324242  11.4364292  60.6172201  13.2114731
  11.5853856  60.0575117  12.5588136  12.2164294  60.6964203  13.5947250
  11.5738386  60.5457767  13.1711680  13.9617593  60.7886844  14.4899222
  13.8861264  60.1195654  15.0450010  13.8907452  61.4904632  15.0039888
  13.9398200  60.7931751  14.6476070  14.7758232  45.5210148  15.0174240
  15.2330846  46.2534123  15.1447032  14.8514560  45.0976614  15.7761496
  14.8549201  45.5667386  15.1475316   7.0191223  45.7675968  16.1063683
   6.4833412  45.1556326  16.4224451   7.0808988  46.3424104  16.7597350
   6.9486855  45.7622896  16.2499110  19.2485558  38.7000024   8.8868083
  19.3669126  39.1576487   8.1535385  19.0747733  37.8945285   8.6004300
  19.2404729  38.6493796   8.7369016  12.6540610  47.5112252  11.8616064
  11.8636684  47.3303712  12.1833400  13.0501232  46.7339205  11.8446358
  12.5957486  47.3699713  11.9068612  18.0384296  55.1454682   9.5875510
  17.3629298  54.9139915  10.0888897  18.0476672  54.5375865   8.9617615
  17.9402800  55.0213608   9.5691662  15.1678440  49.9872511  16.3439563
  15.1037581  50.8482468  16.2159699  15.3075628  49.6704505  15.5435114
  15.1793910  50.0672678  16.2067776  13.8497534  52.6804651  10.4855766
  13.4259783  52.8809150   9.7494784  13.6742389  51.8333499  10.5980065
  13.7608414  52.5853432  10.3929456  13.3509227  64.1955164  12.9477223
  13.8405157  63.4965953  12.7652887  12.7793459  63.8979034  13.5353280
  13.3393757  64.0481387  13.0078264  15.6759123  52.5514586   4.7877101
  16.2174669  52.0484967   5.2515722  15.9905682  52.4979780   3.9766587
  15.8023520  52.4694007   4.7360913  19.5476231  56.7617233  21.9004014
  20.3611096  56.4902382  22.0609146  19.3871197  56.4624773  21.0964209
  19.6446179  56.6772159  21.8049419  16.8248393  47.4450890  14.8399402
  17.0390362  46.8061804  14.2862756  16.2082292  47.8896714  14.4107264
  16.7653722  47.4161034  14.6949833  18.9887481  49.0539955  15.7782709
  18.1764162  48.7465846  15.8595882  19.4477415  48.5738956  16.3425421
  18.9367865  48.9376448  15.8737303  18.3992735  56.9319627   6.2259653
  18.0407390  57.1034270   7.0023686  17.9131446  57.3932833   5.6687652
  18.2751432  57.0258598   6.2584922  16.2163121  40.5550826   9.8286745
  15.3456679  40.5289547   9.7820054  16.4703463  40.3828018   9.0112590
  16.1256681  40.5260970   9.7006881  16.0840988  50.4600027  20.5611411
  16.5540619  51.0842143  20.9479285  16.1302868  49.7917002  21.1204626
  16.1608864  50.4534707  20.7011483  13.2412262  42.5657054  11.2860215
  12.7250750  41.8737246  11.4111794  12.6806191  43.2327831  11.2322814
  13.0818775  42.5620312  11.2966281  15.3104495  43.1050014  13.1153068
  14.9236248  43.1299046  13.8966597  14.8237433  42.5391693  12.6627584
  15.1817004  43.0245765  13.1640971  19.5597475  57.8223523  17.1726854
  20.1977195  57.3283719  16.8389310  18.9171566  57.7500924  16.5879081
  19.5591701  57.7382532  17.0369209  21.2854475  49.6712669  11.7392770
  20.8582083  49.5839018  10.9840869  20.6480528  49.7790445  12.3247614
  21.1284082  49.6745329  11.7138211  14.9761637  39.9917000  15.4063327
  15.6054755  40.5277300  15.1284398  15.1447500  39.8994359  16.2576893
  15.0939432  40.0578362  15.4911856  14.7775552  44.7788195  17.6789739
  15.6048981  44.5073343  17.7348353  14.7983398  45.5749036  18.0353557
  14.9028402  44.8567949  17.7404922  19.6151731  58.5143332  13.8132211
  20.4044109  58.1632396  13.9334292  19.7895329  59.3279720  13.5508845
  19.7572013  58.5829189  13.7920079   9.3545042  51.9252057  10.8660000
   8.5133048  51.8255932  11.0738894   9.5635050  52.6947538  11.2174320
   9.2609734  52.0244101  10.9487315  18.4685555  42.5252888   8.3748629
  18.6735149  42.4575196   9.2205626  18.1411979  43.3311710   8.3069807
  18.4500803  42.6338829   8.4908284  13.1661707  49.8533457  10.1157597
  12.8624844  49.2989445  10.7168005  12.4641127  50.0325667   9.6285631
  13.0177916  49.7978239  10.1327303  12.2227804  47.1633976   4.6802299
  12.4987538  46.4452889   4.2679867  12.8226473  47.7618896   4.4723405
  12.3521068  47.1454347   4.5883060  11.2280058  57.0683177  14.8229695
  11.1200412  57.0785239  15.6891753  11.4375839  57.8937958  14.6334649
  11.2430169  57.1924252  14.9233787  21.7219243  43.0784653   7.8551395
  21.1093557  43.5655055   8.2405127  21.8183418  42.4028143   8.3989046
  21.6457141  43.0502961   7.9930253  15.7238324  44.8347494   2.9548894
  16.1782071  45.0058054   3.6796739  16.1978370  44.2215604   2.5546670
  15.8606644  44.7698379   3.0022656   9.2453850  54.3195820  12.2851633
   8.6541783  54.9605318  12.2554648  10.0074873  54.7433437  12.2582932
   9.2702110  54.4771658  12.2766780   9.6414472  45.4797817  12.9519650
  10.1015954  45.5536747  13.6894774   9.6870579  46.2779071  12.6019472
   9.7165028  45.6091964  13.0092407  11.2897822  46.1464512  17.5191677
  10.8983387  45.4997859  17.9547455  11.4583685  46.7375948  18.1385933
  11.2568732  46.1378780  17.6754383  25.3644271  54.1501589  13.2828911
  25.4227395  54.5988238  14.0288887  24.7310739  54.5600402  12.8458991
  25.2795566  54.2775324  13.3281459  19.0043366  59.7705131   9.7183657
  18.8063054  60.2595946   9.0239868  18.3831077  59.9746373  10.2967790
  18.8830930  59.8721669   9.7006880  14.9830920  43.3340287   9.0925763
  14.1366965  43.5063095   8.9667113  14.9802052  42.5289631   9.4291591
  14.8578070  43.2401316   9.1236890  16.0529220  47.1115501   9.9587821
  15.5789174  46.5857263  10.4693132  16.4247356  46.5644974   9.3902682
  16.0379109  46.9531498   9.9502968   6.4302250  49.1087008  15.3271366
   7.2927863  49.0082717  15.2408696   6.0994033  48.5281717  14.7656939
   6.5087447  49.0078635  15.2316772  22.3165951  52.1717877  11.3694601
  22.0764173  51.3324292  11.3737028  22.7957958  52.2518044  12.0935375
  22.3518134  52.0599277  11.4769403  17.9812720  48.0052056   3.0213574
  17.4535738  48.0880800   2.3319283  18.4408428  48.7469927   3.0178219
  17.9714570  48.1272718   2.9188270  24.3171138  48.9519334   9.3223860
  24.0780908  48.9115168   8.4844645  24.4805039  49.7990486   9.4489581
  24.3061441  49.0711419   9.2177342  20.9217168  53.3369284  15.2528905
  21.6451367  52.8841810  15.0739925  20.6567130  53.6173949  14.4701233
  20.9898441  53.3120252  15.1107621   9.7904036  47.9329457  11.9881785
   9.1657106  47.9447849  11.3807737   9.4549631  48.4089632  12.6373025
   9.6489528  48.0047974  11.9938353  16.7035957  53.4353162  13.4023920
  16.0892950  52.8911212  13.6972556  17.2203242  52.9217398  12.9229737
  16.6891620  53.2789571  13.3748149  15.9432254  54.5057432  11.1368219
  15.5159862  53.8807150  10.7033655  15.9357199  54.2232354  11.9627226
  15.8791396  54.3710212  11.1948047   9.0594782  49.5422605  14.2056653
   9.2188268  48.7865929  14.6108375   8.8787675  50.0913544  14.8597391
   9.0560140  49.5116419  14.3619359  17.0015085  41.7083840  14.7607443
  16.5055646  41.9047515  14.0699009  17.7584147  42.1076509  14.5896244
  17.0401909  41.7961574  14.6327579  14.2717964  45.3826186  11.3510753
  14.2960451  44.8486299  10.6623533  14.5229438  44.8743495  12.0136344
  14.3127883  45.2287090  11.3475398  10.5519286  44.1097005  10.7316497
  10.5917658  44.6106211  11.4451205   9.7268951  44.2007398  10.4622420
  10.4358812  44.1978821  10.7967036  12.7348899  53.6757745  18.8336792
  11.8844530  53.8129459  18.9694437  12.8977027  52.9421523  19.2784494
  12.6332763  53.5871846  18.9192391  11.9733650  50.6257514  13.0290396
  11.1425579  50.7931332  12.8225645  11.9185167  50.2493465  13.8139282
  11.8423065  50.5947246  13.1138925   9.7817433  44.1166407  18.6646807
  10.4070136  43.5728540  18.9376239   9.3267913  43.6361325  18.0954598
   9.8065694  43.9655889  18.6208401  23.3552482  52.2995694  13.7559455
  23.9470322  52.9392945  13.7877653  23.7911476  51.6018731  14.0451522
  23.5070913  52.2914045  13.8040288  15.1845872  56.7213067  14.3817349
  14.6770963  57.2748914  14.8257980  14.8872518  56.7821357  13.5636124
  15.0650757  56.8119378  14.3265806  17.3508054  45.0866386  13.2242012
  17.7763125  44.6338913  12.6125538  16.7365047  44.5326457  13.5006800
  17.3236699  44.9380363  13.1747037  15.7902277  41.5581486   6.6332589
  15.1470595  41.4079133   7.2017728  15.4501684  41.3123831   5.8681694
  15.6447354  41.4993609   6.6035604  20.3801623  49.5140913   6.0562598
  19.7092813  50.0570615   5.9275663  21.0741373  49.9835768   5.8144292
  20.3830491  49.6639184   6.0018125  14.4288357  61.6537625  11.2874356
  14.2054011  60.8956454  11.6558382  13.9398200  61.6835646  10.5654796
  14.3231806  61.5459850  11.2351097  20.5429751  45.9696797   8.9652971
  20.8957361  45.5426520   9.6398770  19.6844552  45.8847640   9.0954047
  20.4679195  45.8941537   9.0847981  18.5413016  49.2332165  12.9137813
  18.5210944  49.0515460  13.7672592  18.5892217  50.1044184  12.8897397
  18.5447657  49.3348703  13.0361108  16.4859346  55.8219357  18.8386290
  16.4455201  55.1769034  18.2531446  17.2982664  55.7655975  19.1511702
  16.6002500  55.7178324  18.7983239  16.4432108  61.0328168   9.4935057
  16.0448391  61.1430439   8.7255877  15.8283327  61.2410235  10.0761617
  16.2930997  61.0801736   9.4666357  21.9753811  41.0915208   9.8937283
  21.4684675  40.3844348   9.8258461  22.7721244  40.7608397  10.0238360
  22.0181050  40.9388360   9.9036278  17.8917827  47.5981821   5.7910947
  17.6631520  47.6214522   4.9489305  18.1515903  46.7739288   5.9105958
  17.8964015  47.4797901   5.6836145  12.1737055  49.4516294  15.3936047
  11.6615958  48.8437477  15.7521079  12.0016551  50.1672886  15.8610023
  12.0726692  49.4679593  15.5152271   7.0202770  47.8953869  18.0438409
   6.8505360  48.5555244  17.4986616   6.5768720  48.1060430  18.7650898
   6.9302103  48.0239851  18.0700039  10.9462589  46.1358367   7.0865143
  11.4219955  46.4975447   6.4515324  10.4451189  46.7914835   7.3665286
  10.9427948  46.2852556   7.0341884  24.1773951  55.6080135   2.8778148
  24.5607556  56.3571491   3.1076245  23.3818064  55.8545955   2.6190137
  24.1167733  55.7549829   2.8735721  16.0506125  47.3740538  17.8338303
  16.6077555  47.1454348  17.2016768  15.7267190  48.1346204  17.5573515
  16.0852535  47.4524375  17.6994800   3.9204834  50.8000735  13.3026899
   3.3731554  50.1301380  13.4207767   4.7097212  50.4330583  13.3670366
   3.9557018  50.6465721  13.3295599  13.7689243  50.4608192  18.7990310
  14.5200570  50.7759869  19.1129864  13.9611819  50.2587363  17.9724232
  13.9080657  50.4775573  18.7233706  20.6174533  46.5881758   6.0414105
  20.6168759  46.4330415   6.8998382  20.4130713  47.4344745   5.9855491
  20.5874311  46.6902379   6.1602045  18.3415385  51.2679260   9.6950312
  18.8369050  50.5502255   9.6554333  17.5315160  50.9650057   9.5804799
  18.2959278  51.1176906   9.6724038  20.4067204  54.0182947  12.3827441
  20.8322275  53.4957369  11.8297866  20.0424123  54.6163785  11.8616064
  20.4153806  54.0293174  12.2236451  16.9945803  57.7317212   8.7128599
  17.4656981  58.4457474   8.8818584  17.3305982  57.1315962   9.2488468
  17.1140918  57.7488676   8.8160974  19.0822788  59.3418525  20.8920671
  19.1919753  58.5527086  21.2477418  19.4113684  59.2524461  20.0895009
  19.1475193  59.2124378  20.8263061  13.9115298  42.5044682  15.6686693
  14.0443204  41.7075676  15.9967669  14.2960451  43.0311085  16.2484969
  13.9871627  42.4644599  15.8030196  17.6319749  57.5235146  15.4756291
  17.0840695  56.8993029  15.2076356  18.0932778  57.7129418  14.7600371
  17.6186959  57.4594196  15.3306722  16.9847653  39.4275008  12.2667787
  16.1793617  39.3172738  12.5835625  16.8554389  39.5287464  11.4097652
  16.8467786  39.4258678  12.1875827  20.4413614  45.5920500  12.8607483
  19.8576603  46.0929707  12.4485051  20.7617908  45.0850056  12.2271807
  20.4026789  45.5912335  12.7065991  12.9808413  44.5061095   3.1366158
  13.8024107  44.6759408   2.8947853  12.5178064  44.6608356   2.4132456
  13.0339575  44.5542828   2.9937803  11.5703745  42.5003857  13.9164587
  12.1148158  42.1594984  14.5068929  11.6240680  43.3589319  14.0585872
  11.6592864  42.5759117  14.0246460  17.1978076  58.5286218  12.0065632
  18.0176449  58.3849184  12.2681928  16.9172153  59.1532417  12.5482070
  17.2774819  58.5996570  12.1253572  26.8691411  65.2726721   9.7261439
  26.0129306  65.4335219   9.7770556  26.9159065  64.4018785   9.7466500
  26.7490522  65.1677523   9.7367505  30.1785127  71.5413247  19.3321895
  30.8851895  71.0465277  19.4608830  30.3673063  71.9822328  18.6024553
  30.3113033  71.5331597  19.2430941  29.7143232  67.3318765  12.3693091
  30.2599192  68.0103852  12.4287060  29.6560108  67.1906226  11.5094672
  29.7859146  67.4110767  12.2505151  18.3272439  63.0113848  10.2798085
  17.7077470  62.4206496  10.1108099  18.2256302  63.6025284   9.6462408
  18.2210114  63.0117931  10.1603074  18.0541572  66.5566130  12.5241654
  17.9300268  67.1428576  13.1591472  18.7059856  66.0626326  12.8253929
  18.1315221  66.5704934  12.6627583  23.0799913  69.7327847  11.8029165
  23.7248915  69.2400290  11.4840113  23.3201690  69.8752634  12.6295243
  23.2110498  69.6805289  11.8778698  23.5967198  60.1205787   8.6951822
  23.2670528  60.5716930   8.0255521  22.9212200  60.0421950   9.2424829
  23.4477634  60.1756922   8.6775046  30.8043606  56.1091310   6.9401433
  30.4897047  56.7994788   7.3721855  30.2870547  56.0536092   6.2386934
  30.6808076  56.2026198   6.8998382  21.8023152  58.1818075   4.1774770
  22.5569120  58.5496392   3.9391820  21.6250686  58.5557630   4.9453950
  21.8877630  58.2916263   4.2559659  35.0958051  64.3312516  12.2222309
  34.2586472  64.4014703  12.4569904  35.0646281  64.3337011  11.3496612
  34.9676333  64.3422743  12.1281857  21.4922780  66.4745551  17.9370678
  21.6643283  66.3651446  18.7855959  22.0292137  67.1199957  17.7001870
  21.5967784  66.5537553  18.0275775  25.8379936  57.5914805   3.9101907
  26.5666096  57.4130760   3.4640063  25.9274829  58.4332885   4.1209085
  25.9586598  57.6898683   3.8755424  32.7765890  59.3955297  10.8066032
  33.4191799  59.4653402  11.3927947  33.0288911  58.7284520  10.3045574
  32.9088022  59.3081646  10.8193311  20.5483103  62.6055861  15.4190606
  19.8554900  62.1352840  15.6651337  21.1643430  62.3794165  15.9932313
  20.5367633  62.5022993  15.5399758  19.2723662  66.5721265  16.5617451
  19.9963634  66.5574295  17.0482346  19.3739798  67.2816620  16.0639419
  19.3941871  66.6745968  16.5596238  26.6468611  70.0520349  21.4266398
  25.8541592  70.3663861  21.6119018  26.7617538  70.2671818  20.5887182
  26.5464022  70.1304186  21.3304733  27.5752404  69.9540553  16.3651695
  28.1491266  69.3167797  16.5200258  27.4967208  69.9544635  15.4961352
  27.6485639  69.8605664  16.2598105  22.9316123  68.3863818   8.4172892
  22.6735367  67.5535553   8.3904191  22.9864606  68.6121431   7.5765392
  22.9015901  68.2961589   8.2893029  28.0117173  60.4892269   8.5176985
  27.3073500  60.0001454   8.6760904  28.0602147  60.5014743   7.6465429
  27.9147224  60.4181917   8.4116324  21.9050835  65.9401581   8.9037787
  21.3300426  66.0993749   9.5401748  21.5286511  65.3036990   8.4406237
  21.7653647  65.8699394   8.9292345  25.5724123  64.4124930  13.7630165
  25.1838556  63.9879148  13.1082356  24.9078822  64.6607080  14.2707192
  25.4171051  64.3863651  13.7418033  29.3950485  58.1099559  11.2754149
  29.7760997  57.4277730  11.6622024  28.5913769  57.8209161  11.0929814
  29.3326947  57.9666607  11.3058205  32.8972552  71.3249531  16.3736548
  32.6611189  70.4937595  16.2548608  33.5415781  71.2735138  16.9591392
  32.9567223  71.1947219  16.4422441  23.3542325  60.6153757  21.1416758
  23.0395766  61.3853320  20.8786321  23.0332258  60.0524013  20.5568985
  23.2601245  60.6464026  21.0158108  33.9208973  71.1093979  12.4364842
  33.6154790  71.8422036  12.7978158  33.2015188  70.7031909  12.1557628
  33.7696315  71.1575712  12.4477979  20.9074222  59.0044278   6.7562954
  20.0396648  59.0766878   6.8220563  21.1949427  59.8066357   6.9450929
  20.8213970  59.1338425   6.7937721  30.0307111  59.1522138  15.0874276
  30.7760703  58.9631948  14.6737701  29.6144416  59.6780376  14.5288132
  30.0792085  59.2024283  14.9438849  31.1097788  64.7627700   9.1484377
  30.7662554  64.0418035   9.4991627  31.2090831  64.5541551   8.3062735
  31.0739831  64.6251903   9.0756057  22.9858831  63.2151008  19.8801973
  22.1758607  63.5208788  19.7691815  23.4633518  63.9356590  19.9954557
  22.9362310  63.3665609  19.8809044  29.6288754  62.6819285  11.0243920
  28.7899854  62.7080564  10.7882183  29.6993121  63.3290020  11.6049267
  29.5157147  62.7815411  11.0753037  28.0758032  59.5804662   5.7571536
  28.7784385  59.3812410   5.2791494  27.8102221  58.8080604   6.0640379
  28.1404664  59.4367628   5.7316978  22.8386588  60.8439947  14.8102417
  22.6469785  60.8595081  15.6601840  23.6885184  61.0403621  14.7869071
  22.9362310  60.8754298  14.9325711  17.2233501  63.3730928  12.7886233
  17.0818993  62.5214869  12.9130741  17.5074065  63.4159589  11.9648439
  17.2441347  63.2530678  12.6853857  27.3772094  65.2098019   6.9330721
  27.1306808  65.1293769   7.7667510  27.7057217  64.4251486   6.7393249
  27.3893337  65.0824284   7.0278244  29.6098227  68.2177753  16.9739884
  29.6046266  67.3457570  16.9782311  30.3159221  68.4165922  16.5009340
  29.7143231  68.1181627  16.9046920  23.3369121  67.9454737  16.3453704
  23.4812497  68.5255945  15.7096814  23.6844769  68.3231034  17.0503559
  23.4096582  68.0875441  16.3552699  25.5089038  67.1444906  14.1278836
  24.7612352  67.3375920  13.7227114  25.6630563  66.3190125  13.8902957
  25.4211466  67.0510017  14.0324242  25.7490815  61.0395456  15.0174240
  26.2063429  61.7719431  15.1447032  25.8247144  60.6161922  15.7761496
  25.8281785  61.0852694  15.1475316  17.9923806  61.2861276  16.1063683
  17.4565996  60.6741634  16.4224451  18.0541571  61.8609412  16.7597350
  17.9219439  61.2808204  16.2499110  30.2218141  54.2185331   8.8868083
  30.3401709  54.6761795   8.1535385  30.0480317  53.4130593   8.6004300
  30.2137312  54.1679104   8.7369016  23.6273193  63.0297560  11.8616064
  22.8369268  62.8489020  12.1833400  24.0233816  62.2524513  11.8446358
  23.5690069  62.8885021  11.9068612  29.0116879  70.6639990   9.5875510
  28.3361881  70.4325223  10.0888897  29.0209256  70.0561173   8.9617615
  28.9135384  70.5398916   9.5691662  26.1411023  65.5057819  16.3439563
  26.0770165  66.3667776  16.2159699  26.2808211  65.1889813  15.5435114
  26.1526493  65.5857986  16.2067776  24.8230117  68.1989959  10.4855766
  24.3992366  68.3994458   9.7494784  24.6474972  67.3518807  10.5980065
  24.7340998  68.1038740  10.3929456  30.5208814  72.2802541  21.9004014
  31.3343680  72.0087690  22.0609146  30.3603781  71.9810081  21.0964209
  30.6178763  72.1957467  21.8049419  27.7980976  62.9636198  14.8399402
  28.0122946  62.3247112  14.2862756  27.1814875  63.4082022  14.4107264
  27.7386305  62.9346342  14.6949833  29.9620064  64.5725263  15.7782709
  29.1496746  64.2651154  15.8595882  30.4209999  64.0924263  16.3425421
  29.9100449  64.4561756  15.8737303  27.1895705  56.0736134   9.8286745
  26.3189263  56.0474855   9.7820054  27.4436046  55.9013326   9.0112590
  27.0989265  56.0446278   9.7006881  27.0573572  65.9785335  20.5611411
  27.5273203  66.6027451  20.9479285  27.1035452  65.3102310  21.1204626
  27.1341448  65.9720015  20.7011483  24.2144845  58.0842362  11.2860215
  23.6983334  57.3922554  11.4111794  23.6538774  58.7513139  11.2322814
  24.0551359  58.0805620  11.2966281  26.2837079  58.6235322  13.1153068
  25.8968832  58.6484354  13.8966597  25.7970016  58.0577001  12.6627584
  26.1549588  58.5431073  13.1640971  32.2587058  65.1897977  11.7392770
  31.8314666  65.1024326  10.9840869  31.6213111  65.2975753  12.3247614
  32.1016666  65.1930637  11.7138211  25.9494221  55.5102308  15.4063327
  26.5787339  56.0462608  15.1284398  26.1180083  55.4179667  16.2576893
  26.0672015  55.5763670  15.4911856  25.7508135  60.2973502  17.6789739
  26.5781565  60.0258651  17.7348353  25.7715981  61.0934344  18.0353557
  25.8760986  60.3753257  17.7404922  20.3277625  67.4437365  10.8660000
  19.4865632  67.3441239  11.0738894  20.5367633  68.2132846  11.2174320
  20.2342318  67.5429409  10.9487315  29.4418139  58.0438196   8.3748629
  29.6467732  57.9760504   9.2205626  29.1144563  58.8497017   8.3069807
  29.4233387  58.1524137   8.4908284  24.1394290  65.3718764  10.1157597
  23.8357428  64.8174753  10.7168005  23.4373711  65.5510974   9.6285631
  23.9910500  65.3163547  10.1327303  23.1960387  62.6819284   4.6802299
  23.4720122  61.9638197   4.2679867  23.7959057  63.2804204   4.4723405
  23.3253652  62.6639655   4.5883060  32.6951827  58.5969961   7.8551395
  32.0826140  59.0840363   8.2405127  32.7916002  57.9213451   8.3989046
  32.6189724  58.5688269   7.9930253  26.6970908  60.3532802   2.9548894
  27.1514654  60.5243362   3.6796739  27.1710953  59.7400912   2.5546670
  26.8339228  60.2883687   3.0022656  20.6147056  60.9983125  12.9519650
  21.0748538  61.0722055  13.6894774  20.6603163  61.7964379  12.6019472
  20.6897611  61.1277272  13.0092407  22.2630406  61.6649820  17.5191677
  21.8715971  61.0183167  17.9547455  22.4316268  62.2561255  18.1385933
  22.2301316  61.6564088  17.6754383  36.3376855  69.6686897  13.2828911
  36.3959978  70.1173546  14.0288887  35.7043322  70.0785710  12.8458991
  36.2528150  69.7960632  13.3281459  25.9563503  58.8525595   9.0925763
  25.1099548  59.0248403   8.9667113  25.9534636  58.0474939   9.4291591
  25.8310653  58.7586624   9.1236890  27.0261804  62.6300809   9.9587821
  26.5521758  62.1042571  10.4693132  27.3979939  62.0830282   9.3902682
  27.0111693  62.4716806   9.9502968  17.4034834  64.6272316  15.3271366
  18.2660447  64.5268025  15.2408696  17.0726617  64.0467025  14.7656939
  17.4820030  64.5263943  15.2316772  33.2898534  67.6903185  11.3694601
  33.0496757  66.8509600  11.3737028  33.7690541  67.7703352  12.0935375
  33.3250718  67.5784585  11.4769403  35.2903721  64.4704642   9.3223860
  35.0513491  64.4300476   8.4844645  35.4537622  65.3175794   9.4489581
  35.2794025  64.5896727   9.2177342  31.8949751  68.8554591  15.2528905
  32.6183950  68.4027118  15.0739925  31.6299714  69.1359257  14.4701233
  31.9631025  68.8305560  15.1107621  20.7636620  63.4514765  11.9881785
  20.1389690  63.4633157  11.3807737  20.4282215  63.9274940  12.6373025
  20.6222112  63.5233282  11.9938353  27.6768541  68.9538470  13.4023920
  27.0625534  68.4096520  13.6972556  28.1935826  68.4402706  12.9229737
  27.6624203  68.7974879  13.3748149  26.9164838  70.0242740  11.1368219
  26.4892446  69.3992458  10.7033655  26.9089782  69.7417662  11.9627226
  26.8523979  69.8895520  11.1948047  20.0327365  65.0607913  14.2056653
  20.1920852  64.3051237  14.6108375  19.8520259  65.6098852  14.8597391
  20.0292724  65.0301727  14.3619359  27.9747668  57.2269148  14.7607443
  27.4788229  57.4232823  14.0699009  28.7316730  57.6261817  14.5896244
  28.0134493  57.3146882  14.6327579  25.2450548  60.9011494  11.3510753
  25.2693035  60.3671607  10.6623533  25.4962021  60.3928803  12.0136344
  25.2860466  60.7472398  11.3475398  21.5251870  59.6282313  10.7316497
  21.5650242  60.1291519  11.4451205  20.7001535  59.7192706  10.4622420
  21.4091396  59.7164129  10.7967036  23.7081483  69.1943053  18.8336792
  22.8577113  69.3314767  18.9694437  23.8709611  68.4606831  19.2784494
  23.6065346  69.1057154  18.9192391  22.9466233  66.1442822  13.0290396
  22.1158163  66.3116640  12.8225645  22.8917750  65.7678773  13.8139282
  22.8155648  66.1132554  13.1138925  20.7550017  59.6351715  18.6646807
  21.3802720  59.0913848  18.9376239  20.3000496  59.1546633  18.0954598
  20.7798277  59.4841197  18.6208401  34.3285065  67.8181002  13.7559455
  34.9202906  68.4578253  13.7877653  34.7644060  67.1204039  14.0451522
  34.4803497  67.8099353  13.8040288  28.3240637  60.6051694  13.2242012
  28.7495709  60.1524221  12.6125538  27.7097630  60.0511765  13.5006800
  28.2969283  60.4565671  13.1747037  26.7634860  57.0766794   6.6332589
  26.1203178  56.9264440   7.2017728  26.4234267  56.8309139   5.8681694
  26.6179938  57.0178917   6.6035604  31.5162334  61.4882105   8.9652971
  31.8689944  61.0611827   9.6398770  30.6577136  61.4032948   9.0954047
  31.4411779  61.4126845   9.0847981  29.5145600  64.7517473  12.9137813
  29.4943527  64.5700768  13.7672592  29.5624801  65.6229492  12.8897397
  29.5180241  64.8534011  13.0361108  27.4591930  71.3404665  18.8386290
  27.4187785  70.6954342  18.2531446  28.2715248  71.2841283  19.1511702
  27.5735083  71.2363632  18.7983239  32.9486394  56.6100516   9.8937283
  32.4417259  55.9029656   9.8258461  33.7453828  56.2793705  10.0238360
  32.9913633  56.4573668   9.9036278  28.8650410  63.1167129   5.7910947
  28.6364103  63.1399830   4.9489305  29.1248486  62.2924596   5.9105958
  28.8696598  62.9983209   5.6836145  23.1469639  64.9701602  15.3936047
  22.6348542  64.3622785  15.7521079  22.9749135  65.6858194  15.8610023
  23.0459276  64.9864901  15.5152271  17.9935353  63.4139177  18.0438409
  17.8237943  64.0740552  17.4986616  17.5501303  63.6245738  18.7650898
  17.9034687  63.5425159  18.0700039  21.9195173  61.6543675   7.0865143
  22.3952539  62.0160755   6.4515324  21.4183772  62.3100143   7.3665286
  21.9160532  61.8037864   7.0341884  27.0238709  62.8925846  17.8338303
  27.5810139  62.6639656  17.2016768  26.6999774  63.6531512  17.5573515
  27.0585119  62.9709683  17.6994800  14.8937418  66.3186043  13.3026899
  14.3464137  65.6486688  13.4207767  15.6829796  65.9515890  13.3670366
  14.9289601  66.1651029  13.3295599  24.7421826  65.9793500  18.7990310
  25.4933153  66.2945176  19.1129864  24.9344403  65.7772671  17.9724232
  24.8813240  65.9960881  18.7233706  31.5907116  62.1067066   6.0414105
  31.5901343  61.9515722   6.8998382  31.3863296  62.9530053   5.9855491
  31.5606894  62.2087687   6.1602045  29.3147968  66.7864568   9.6950312
  29.8101634  66.0687563   9.6554333  28.5047744  66.4835365   9.5804799
  29.2691862  66.6362214   9.6724038  31.3799787  69.5368255  12.3827441
  31.8054859  69.0142677  11.8297866  31.0156707  70.1349093  11.8616064
  31.3886390  69.5478482  12.2236451  24.8847882  58.0229990  15.6686693
  25.0175787  57.2260983  15.9967669  25.2693034  58.5496393  16.2484969
  24.9604210  57.9829907  15.8030196  27.9580237  54.9460316  12.2667787
  27.1526200  54.8358046  12.5835625  27.8286972  55.0472772  11.4097652
  27.8200370  54.9443986  12.1875827  31.4146197  61.1105808  12.8607483
  30.8309186  61.6115015  12.4485051  31.7350491  60.6035364  12.2271807
  31.3759373  61.1097643  12.7065991  23.9540996  60.0246403   3.1366158
  24.7756691  60.1944716   2.8947853  23.4910647  60.1793664   2.4132456
  24.0072159  60.0728136   2.9937803  22.5436328  58.0189165  13.9164587
  23.0880741  57.6780292  14.5068929  22.5973264  58.8774627  14.0585872
  22.6325448  58.0944424  14.0246460  36.9226804  71.0287616  15.4063327
  37.5519922  71.5647916  15.1284398  37.0912667  70.9364975  16.2576893
  37.0404599  71.0948978  15.4911856  35.8580465  73.5415298  15.6686693
  35.9908371  72.7446291  15.9967669  36.2425618  74.0681701  16.2484969
  35.9336794  73.5015215  15.8030196  18.9003368  32.9606070   6.2661942
  19.6070135  32.4658101   6.3948876  19.0891303  33.4015151   5.5364600
  19.0331273  32.9524420   6.1770988  16.0395662  36.3833607   4.1576017
  16.1279008  36.1959747   5.0054228  16.4685375  35.7371036   3.7580864
  16.1157764  36.2596614   4.2247769  13.6066122  35.6664766   3.1393679
  13.0436957  35.2537376   3.6633341  14.3687145  35.5917672   3.5586823
  13.6360571  35.5942167   3.2786680  16.1515721  35.8142626   6.8219801
  16.9356138  35.9273473   7.1875543  15.9512316  34.9883763   7.0178487
  16.2381747  35.7089345   6.9054187  16.3086115  37.7252728   0.4686256
  15.5101361  37.4852228   0.7260125  16.7572126  37.7767120   1.2153304
  16.2560726  37.6975119   0.6171181  15.3686852  31.4713173   8.3606445
  14.5759832  31.7856684   8.5459064  15.4835779  31.6864641   7.5227229
  15.2682262  31.5497009   8.2644779  21.6190792  32.7442354   3.3076595
  21.3829430  31.9130419   3.1888655  22.2634021  32.6927961   3.8931439
  21.6785463  32.6140042   3.3762488  13.6568417  37.7264975   1.4239269
  13.5812088  37.0573786   1.9790057  13.5858276  38.4282763   1.9379935
  13.6349024  37.7309882   1.5816117  13.0460051  41.1333295  -0.1182730
  13.5355981  40.4344084  -0.3007066  12.4744283  40.8357165   0.4693327
  13.0344581  40.9859519  -0.0581690  19.2427055  33.6995364   8.8344060
  20.0561920  33.4280513   8.9949193  19.0822021  33.4002904   8.0304256
  19.3397003  33.6150290   8.7389466  15.7791812  27.3978158   7.4951458
  16.2491443  28.0220274   7.8819332  15.8253692  26.7295134   8.0544673
  15.8559688  27.3912838   7.6351529  19.2548299  34.7601655   4.1066901
  19.8928019  34.2661850   3.7729357  18.6122390  34.6879055   3.5219128
  19.2542525  34.6760663   3.9709256  19.3102555  35.4521463   0.7472258
  20.0994933  35.1010528   0.8674339  19.4846153  36.2657851   0.4848891
  19.4522837  35.5207320   0.7260126  12.4299723  30.6135876   5.7676839
  11.5795354  30.7507590   5.9034484  12.5927851  29.8799654   6.2124540
  12.3283587  30.5249977   5.8532438  16.1810170  32.7597488   5.7726336
  16.1406025  32.1147165   5.1871492  16.9933488  32.7034106   6.0851749
  16.2953324  32.6556455   5.7323286  18.7773612  36.2796656   7.8260717
  18.8870577  35.4905217   8.1817465  19.1064508  36.1902592   7.0235055
  18.8426017  36.1502509   7.7603108  17.3270573  34.4613277   2.4096338
  16.7791519  33.8371161   2.1416403  17.7883602  34.6507549   1.6940417
  17.3137783  34.3972327   2.2646769  26.5642235  42.2104852  -3.3398514
  25.7080130  42.3713351  -3.2889397  26.6109889  41.3396916  -3.3193453
  26.4441346  42.1055654  -3.3292448  29.8735951  48.4791378   6.2661942
  30.5802719  47.9843409   6.3948876  30.0623887  48.9200459   5.5364600
  30.0063857  48.4709728   6.1770988  29.4094056  44.2696896  -0.6966862
  29.9550016  44.9481983  -0.6372893  29.3510932  44.1284357  -1.5565281
  29.4809970  44.3488898  -0.8154802  17.7492395  43.4944261  -0.5418300
  17.6251092  44.0806707   0.0931519  18.4010680  43.0004457  -0.2406025
  17.8266045  43.5083066  -0.4032370  22.7750736  46.6705978  -1.2630789
  23.4199739  46.1778421  -1.5819840  23.0152514  46.8130765  -0.4364710
  22.9061322  46.6183420  -1.1881255  25.3136828  49.5160884  -1.6123896
  25.5960071  48.7212290  -1.8337140  26.0422988  49.9941471  -1.5918835
  25.4626392  49.4695481  -1.6420881  23.3564654  51.4524100  -1.8040156
  22.8391595  51.0931515  -2.4078848  24.0539045  50.9286275  -1.7934090
  23.3830235  51.3221788  -1.8909897  27.0128246  51.9018914   4.1576017
  27.1011592  51.7145055   5.0054228  27.4417958  51.2556344   3.7580864
  27.0890348  51.7781922   4.2247769  24.5798705  51.1850074   3.1393679
  24.0169540  50.7722684   3.6633341  25.3419729  51.1102980   3.5586823
  24.6093154  51.1127475   3.2786680  34.7908874  41.2690647  -0.8437644
  33.9537296  41.3392834  -0.6090049  34.7597105  41.2715142  -1.7163342
  34.6627157  41.2800874  -0.9378096  20.0898175  49.7855323  -0.4470777
  20.6296400  49.6426454   0.2232596  19.4068122  50.1852074  -0.0786751
  20.0690329  49.8234994  -0.2936355  27.1248305  51.3327933   6.8219801
  27.9088722  51.4458781   7.1875543  26.9244900  50.5069071   7.0178487
  27.2114330  51.2274653   6.9054187  32.4716714  36.3333428  -2.2593922
  33.1142623  36.4031533  -1.6732006  32.7239735  35.6662651  -2.7614380
  32.6038846  36.2459777  -2.2466642  20.2433927  39.5433992   2.3530652
  19.5505724  39.0730972   2.5991384  20.8594254  39.3172296   2.9272360
  20.2318457  39.4401124   2.4739805  27.2818698  53.2438036   0.4686256
  26.4833944  53.0037536   0.7260125  27.7304710  53.2952428   1.2153304
  27.2293310  53.2160427   0.6171181  18.9674486  43.5099396   3.4957498
  19.6914458  43.4952426   3.9822392  19.0690622  44.2194751   2.9979466
  19.0892695  43.6124099   3.4936284  26.3419435  46.9898480   8.3606445
  25.5492416  47.3041992   8.5459064  26.4568362  47.2049949   7.5227229
  26.2414846  47.0682317   8.2644779  27.2703228  46.8918684   3.2991741
  27.8442090  46.2545928   3.4540305  27.1918032  46.8922767   2.4301399
  27.3436463  46.7983796   3.1938152  22.6266947  45.3241949  -4.6487061
  22.3686191  44.4913684  -4.6755762  22.6815429  45.5499562  -5.4894561
  22.5966724  45.2339721  -4.7766924  21.6001659  42.8779712  -4.1622166
  21.0251250  43.0371880  -3.5258205  21.2237335  42.2415121  -4.6253716
  21.4604471  42.8077525  -4.1367608  25.2674947  41.3503061   0.6970212
  24.8789380  40.9257279   0.0422403  24.6029646  41.5985211   1.2047239
  25.1121875  41.3241782   0.6758080  29.0901309  35.0477690  -1.7905804
  29.4711821  34.3655861  -1.4037930  28.2864593  34.7587292  -1.9730139
  29.0277771  34.9044738  -1.7601748  32.5923376  48.2627662   3.3076595
  32.3562013  47.4315727   3.1888655  33.2366605  48.2113269   3.8931439
  32.6518047  48.1325350   3.3762488  23.0493149  37.5531888   8.0756805
  22.7346590  38.3231451   7.8126367  22.7283082  36.9902144   7.4909032
  22.9552068  37.5842157   7.9498155  33.6159796  48.0472111  -0.6295111
  33.3105614  48.7800167  -0.2681795  32.8966012  47.6410040  -0.9102325
  33.4647139  48.0953844  -0.6181974  29.7257935  36.0900269   2.0214323
  30.4711527  35.9010079   1.6077748  29.3095240  36.6158507   1.4628179
  29.7742909  36.1402414   1.8778896  37.1020206  43.4609497  -3.0280172
  37.6528127  42.8277566  -2.7883080  37.0864321  43.9924890  -2.3364668
  37.1805402  43.4458446  -2.8901314  23.7542597  47.2948095   1.5179721
  23.2554290  48.0063862   1.5964610  24.5642821  47.6148761   1.4797884
  23.7998703  47.4474943   1.5236290  30.8048612  41.7005831  -3.9175576
  30.4613378  40.9796166  -3.5668326  30.9041655  41.4919682  -4.7597218
  30.7690655  41.5630034  -3.9903896  22.6809655  40.1529139   6.8142019
  21.8709431  40.4586919   6.7031862  23.1584341  40.8734721   6.9294604
  22.6313134  40.3043740   6.8149091  29.3239578  39.6197416  -2.0416033
  28.4850678  39.6458695  -2.2777770  29.3943945  40.2668151  -1.4610686
  29.2107971  39.7193542  -1.9906916  19.0153687  45.6891689   1.6841422
  19.5274784  45.9675943   1.0350182  18.7290029  46.4280984   2.0504235
  19.0488550  45.8394043   1.6431300  22.5337412  37.7818078   1.7442463
  22.3420609  37.7973212   2.5941887  23.3836008  37.9781752   1.7209118
  22.6313134  37.8132429   1.8665758  16.9184325  40.3109060  -0.2773720
  16.7769817  39.4593000  -0.1529212  17.2024888  40.3537720  -1.1011514
  16.9392171  40.1908810  -0.3806096  27.0722917  42.1476150  -6.1329232
  26.8257632  42.0671901  -5.2992443  27.4008041  41.3629618  -6.3266704
  27.0844161  42.0202415  -6.0381709  30.9670966  48.8559509  -2.3442451
  30.8285326  49.5540555  -1.8393708  30.1870964  48.7008166  -2.7006269
  30.8314193  48.9359676  -2.3216176  29.3049051  45.1555884   3.9079931
  29.2997090  44.2835701   3.9122358  30.0110045  45.3544054   3.4349387
  29.4094055  45.0559759   3.8386966  23.0319945  44.8832868   3.2793751
  23.1763320  45.4634076   2.6436861  23.3795593  45.2609165   3.9843606
  23.1047406  45.0253572   3.2892746  25.2039862  44.0823037   1.0618883
  24.4563176  44.2754051   0.6567161  25.3581387  43.2568256   0.8243004
  25.1162290  43.9888148   0.9664289  22.1047700  53.0735640   0.1454778
  22.2537263  52.5138556  -0.5071818  22.8847702  53.1527642   0.5287297
  22.2421793  53.0021206   0.1051727  24.6301000  53.2450283   1.4239269
  24.5544671  52.5759094   1.9790057  24.5590859  53.9468071   1.9379935
  24.6081607  53.2495190   1.5816117  25.4441639  37.9773587   1.9514287
  25.9014253  38.7097562   2.0787079  25.5197968  37.5540053   2.7101542
  25.5232609  38.0230826   2.0815363  17.6874630  38.2239407   3.0403730
  17.1516820  37.6119765   3.3564498  17.7492395  38.7987543   3.6937397
  17.6170263  38.2186335   3.1839157  23.3224017  39.9675691  -1.2043889
  22.5320092  39.7867151  -0.8826554  23.7184640  39.1902644  -1.2213595
  23.2640893  39.8263152  -1.1591341  28.7067703  47.6018122  -3.4784444
  28.0312705  47.3703354  -2.9771056  28.7160079  46.9939304  -4.1042338
  28.6086208  47.4777047  -3.4968291  25.8361847  42.4435950   3.2779609
  25.7720989  43.3045907   3.1499746  25.9759035  42.1267944   2.4775161
  25.8477317  42.5236117   3.1407822  24.5180941  45.1368090  -2.5804188
  24.0943190  45.3372589  -3.3165169  24.3425796  44.2896938  -2.4679888
  24.4291822  45.0416871  -2.6730498  24.0192635  56.6518603  -0.1182730
  24.5088565  55.9529392  -0.3007066  23.4476867  56.3542473   0.4693327
  24.0077165  56.5044826  -0.0581690  30.2159638  49.2180672   8.8344060
  31.0294503  48.9465821   8.9949193  30.0554605  48.9188212   8.0304256
  30.3129587  49.1335598   8.7389466  27.4931800  39.9014329   1.7739449
  27.7073770  39.2625244   1.2202803  26.8765699  40.3460153   1.3447310
  27.4337129  39.8724473   1.6289880  29.6570888  41.5103395   2.7122756
  28.8447570  41.2029285   2.7935928  30.1160823  41.0302395   3.2765468
  29.6051273  41.3939887   2.8077350  26.7524396  42.9163466   7.4951458
  27.2224027  43.5405582   7.8819332  26.7986276  42.2480441   8.0544673
  26.8292272  42.9098146   7.6351529  25.9787903  35.5613453   0.0493114
  25.5919656  35.5862485   0.8306644  25.4920840  34.9955132  -0.4032369
  25.8500412  35.4809204   0.0981018  30.2280882  50.2786962   4.1066901
  30.8660603  49.7847158   3.7729357  29.5854974  50.2064363   3.5219128
  30.2275109  50.1945971   3.9709256  31.9537882  42.1276108  -1.3267183
  31.5265490  42.0402457  -2.0819084  31.3163935  42.2353884  -0.7412339
  31.7967490  42.1308768  -1.3521742  25.6445045  32.4480439   2.3403374
  26.2738162  32.9840739   2.0624445  25.8130907  32.3557798   3.1916940
  25.7622839  32.5141801   2.4251902  25.4458959  37.2351634   4.6129786
  26.2732389  36.9636783   4.6688400  25.4666805  38.0312475   4.9693604
  25.5711809  37.3131388   4.6744969  30.2835139  50.9706771   0.7472258
  31.0727517  50.6195835   0.8674339  30.4578737  51.7843159   0.4848891
  30.4255420  51.0392628   0.7260126  20.0228449  44.3815496  -2.1999954
  19.1816456  44.2819371  -1.9921060  20.2318457  45.1510977  -1.8485633
  19.9293142  44.4807540  -2.1172639  23.8345114  42.3096896  -2.9502356
  23.5308252  41.7552884  -2.3491948  23.1324535  42.4889106  -3.4374322
  23.6861324  42.2541678  -2.9332650  21.8963465  49.5246616   1.7569742
  21.7883820  49.5348678   2.6231800  22.1059247  50.3501397   1.5674696
  21.9113576  49.6487691   1.8573833  32.3902651  35.5348092  -5.2108559
  31.7776964  36.0218494  -4.8254827  32.4866826  34.8591583  -4.6670907
  32.3140548  35.5066400  -5.0729700  19.9137257  46.7759259  -0.7808321
  19.3225190  47.4168757  -0.8105306  20.6758281  47.1996876  -0.8077021
  19.9385518  46.9335097  -0.7893173  20.3097880  37.9361256  -0.1140303
  20.7699361  38.0100186   0.6234821  20.3553987  38.7342511  -0.4640482
  20.3848435  38.0655404  -0.0567547  21.9581230  38.6027951   4.4531724
  21.5666795  37.9561298   4.8887502  22.1267092  39.1939387   5.0725979
  21.9252140  38.5942219   4.6094430  36.0327679  46.6065028   0.2168958
  36.0910802  47.0551677   0.9628934  35.3994146  47.0163841  -0.2200962
  35.9478974  46.7338763   0.2621506  26.7212628  39.5678940  -3.1072133
  26.2472582  39.0420703  -2.5966822  27.0930763  39.0208413  -3.6757271
  26.7062516  39.4094937  -3.1156985  17.0985658  41.5650447   2.2611413
  17.9611271  41.4646156   2.1748743  16.7677441  40.9845156   1.6996985
  17.1770854  41.4642074   2.1656819  32.9849358  44.6281316  -1.6965352
  32.7447581  43.7887731  -1.6922926  33.4641365  44.7081483  -0.9724579
  33.0201542  44.5162716  -1.5890550  34.9854545  41.4082773  -3.7436093
  34.7464315  41.3678607  -4.5815308  35.1488446  42.2553925  -3.6170372
  34.9744849  41.5274858  -3.8482611  31.5900575  45.7932723   2.1868952
  32.3134774  45.3405249   2.0079972  31.3250538  46.0737388   1.4041280
  31.6581849  45.7683691   2.0447668  20.4587444  40.3892896  -1.0778169
  19.8340514  40.4011288  -1.6852216  20.1233039  40.8653071  -0.4286928
  20.3172936  40.4611413  -1.0721600  27.3719365  45.8916601   0.3363967
  26.7576358  45.3474651   0.6312603  27.8886650  45.3780837  -0.1430217
  27.3575027  45.7353010   0.3088196  26.6115662  46.9620871  -1.9291734
  26.1843270  46.3370590  -2.3626299  26.6040606  46.6795793  -1.1032727
  26.5474803  46.8273652  -1.8711907  19.7278189  41.9986044   1.1396700
  19.8871676  41.2429368   1.5448422  19.5471083  42.5476984   1.7937438
  19.7243548  41.9679858   1.2959406  27.6698492  34.1647280   1.6947489
  27.1739053  34.3610954   1.0039056  28.4267554  34.5639948   1.5236291
  27.7085317  34.2525013   1.5667626  24.9401372  37.8389625  -1.7149200
  24.9643859  37.3049738  -2.4036420  25.1912845  37.3306934  -1.0523610
  24.9811290  37.6850529  -1.7184555  23.4032307  46.1321184   5.7676839
  22.5527937  46.2692898   5.9034484  23.5660434  45.3984962   6.2124540
  23.3016170  46.0435285   5.8532438  22.6417057  43.0820954  -0.0369557
  21.8108987  43.2494771  -0.2434309  22.5868574  42.7056904   0.7479329
  22.5106472  43.0510685   0.0478971  20.4500840  36.5729846   5.5986854
  21.0753544  36.0291979   5.8716286  19.9951320  36.0924764   5.0294644
  20.4749101  36.4219328   5.5548448  34.0235889  44.7559133   0.6899502
  34.6153729  45.3956384   0.7217700  34.4594884  44.0582170   0.9791569
  34.1754320  44.7477484   0.7380335  25.8529279  49.1776506   1.3157396
  25.3454370  49.7312353   1.7598026  25.5555925  49.2384796   0.4976170
  25.7334164  49.2682817   1.2605853  28.0191461  37.5429825   0.1582059
  28.4446533  37.0902352  -0.4534415  27.4048454  36.9889896   0.4346846
  27.9920107  37.3943802   0.1087084  31.2113158  38.4260236  -4.1006982
  31.5640768  37.9989959  -3.4261184  30.3527960  38.3411079  -3.9705906
  31.1362603  38.3504976  -3.9811972  29.2096424  41.6895604  -0.1522140
  29.1894351  41.5078899   0.7012639  29.2575625  42.5607623  -0.1762556
  29.2131065  41.7912143  -0.0298845  27.1542754  48.2782796   5.7726336
  27.1138609  47.6332473   5.1871492  27.9666072  48.2219414   6.0851749
  27.2685907  48.1741763   5.7323286  32.6437218  33.5478648  -3.1722670
  32.1368083  32.8407787  -3.2401492  33.4404652  33.2171836  -3.0421593
  32.6864457  33.3951799  -3.1623675  22.8420462  41.9079733   2.3276094
  22.3299366  41.3000916   2.6861125  22.6699959  42.6236325   2.7950070
  22.7410099  41.9243032   2.4492318  17.6886177  40.3517308   4.9778456
  17.5188767  41.0118683   4.4326663  17.2452127  40.5623869   5.6990945
  17.5985511  40.4803290   5.0040085  26.7189533  39.8303978   4.7678350
  27.2760963  39.6017787   4.1356815  26.3950598  40.5909643   4.4913562
  26.7535943  39.9087814   4.6334847  14.5888242  43.2564174   0.2366946
  14.0414961  42.5864819   0.3547814  15.3780620  42.8894022   0.3010413
  14.6240425  43.1029160   0.2635646  24.4372650  42.9171631   5.7330357
  25.1883977  43.2323308   6.0469911  24.6295227  42.7150802   4.9064279
  24.5764064  42.9339013   5.6573753  31.2857940  39.0445197  -7.0245848
  31.2852167  38.8893854  -6.1661571  31.0814120  39.8908184  -7.0804462
  31.2557718  39.1465818  -6.9057908  29.0098792  43.7242699  -3.3709641
  29.5052458  43.0065694  -3.4105621  28.1998568  43.4213497  -3.4855154
  28.9642686  43.5740345  -3.3935915  31.0750611  46.4746386  -0.6832512
  31.5005683  45.9520808  -1.2362087  30.7107531  47.0727224  -1.2043889
  31.0837214  46.4856613  -0.8423502  29.7506195  51.7981964   7.8260717
  29.8603161  51.0090525   8.1817465  30.0797092  51.7087900   7.0235055
  29.8158601  51.6687817   7.7603108  24.5798706  34.9608121   2.6026740
  24.7126611  34.1639115   2.9307716  24.9643858  35.4874524   3.1825016
  24.6555034  34.9208038   2.7370243  28.3003157  49.9798585   2.4096338
  27.7524103  49.3556468   2.1416403  28.7616186  50.1692857   1.6940417
  28.2870366  49.9157635   2.2646769  31.1097021  38.0483939  -0.2052470
  30.5260010  38.5493146  -0.6174902  31.4301315  37.5413495  -0.8388146
  31.0710197  38.0475774  -0.3593963  22.2387152  34.9567296   0.8504634
  22.7831565  34.6158423   1.4408976  22.2924088  35.8152758   0.9925918
  22.3276272  35.0322556   0.9586507  27.8661483  50.9849658  -1.0594321
  28.6859857  50.8412624  -0.7978026  27.5855561  51.6095856  -0.5177883
  27.9458227  51.0560010  -0.9406381  32.1606187  58.9308990   4.8710725
  32.3326691  58.8214885   5.7196006  32.6975545  59.5763396   4.6341917
  32.2651191  59.0100992   4.9615821  31.2166510  55.0619300   2.3530652
  30.5238307  54.5916279   2.5991384  31.8326838  54.8357604   2.9272360
  31.2051040  54.9586432   2.4739805  34.0225733  53.0717196   8.0756805
  33.7079174  53.8416759   7.8126367  33.7015666  52.5087452   7.4909032
  33.9284652  53.1027465   7.9498155  33.6542238  55.6714447   6.8142019
  32.8442014  55.9772227   6.7031862  34.1316925  56.3920029   6.9294604
  33.6045717  55.8229048   6.8149091  33.5069996  53.3003386   1.7442463
  33.3153193  53.3158520   2.5941887  34.3568592  53.4967060   1.7209118
  33.6045718  53.3317737   1.8665758  28.6607214  53.7424715   3.0403730
  28.1249403  53.1305073   3.3564498  28.7224979  54.3172851   3.6937397
  28.5902847  53.7371643   3.1839157  37.7256979  58.4348774   7.4951458
  38.1956610  59.0590890   7.8819332  37.7718859  57.7665749   8.0544673
  37.8024855  58.4283454   7.6351529  36.6177628  47.9665747   2.3403374
  37.2470746  48.5026047   2.0624445  36.7863491  47.8743106   3.1916940
  36.7355423  48.0327109   2.4251902  36.4191543  52.7536942   4.6129786
  37.2464972  52.4822090   4.6688400  36.4399389  53.5497783   4.9693604
  36.5444393  52.8316696   4.6744969  32.9313813  54.1213259   4.4531724
  32.5399378  53.4746606   4.8887502  33.0999676  54.7124695   5.0725979
  32.8984724  54.1127527   4.6094430  28.0718241  57.0835755   2.2611413
  28.9343854  56.9831464   2.1748743  27.7410024  56.5030464   1.6996985
  28.1503438  56.9827382   2.1656819  31.4233424  52.0915154   5.5986854
  32.0486127  51.5477287   5.8716286  30.9683904  51.6110072   5.0294644
  31.4481685  51.9404636   5.5548448  28.6618761  55.8702616   4.9778456
  28.4921351  56.5303991   4.4326663  28.2184711  56.0809177   5.6990945
  28.5718094  55.9988598   5.0040085  37.6922116  55.3489285   4.7678350
  38.2493547  55.1203095   4.1356815  37.3683181  56.1094951   4.4913562
  37.7268527  55.4273122   4.6334847  35.4105234  58.4356939   5.7330357
  36.1616561  58.7508616   6.0469911  35.6027810  58.2336110   4.9064279
  35.5496648  58.4524321   5.6573753  35.5531289  50.4793429   2.6026740
  35.6859195  49.6824423   2.9307716  35.9376442  51.0059832   3.1825016
  35.6287618  50.4393346   2.7370243  33.2119736  50.4752604   0.8504634
  33.7564149  50.1343731   1.4408976  33.2656672  51.3338066   0.9925918
  33.3008855  50.5507864   0.9586507  37.4207803  35.3726905  -5.5708495
  37.8907434  35.9969021  -5.1840621  37.4669683  34.7043881  -5.0115281
  37.4975679  35.3661585  -5.4308424
  72.7613345  72.7613345  72.7613345 109.4712190 109.4712190 109.4712190
